DF-ISE text

Info {
  version   = 1.0
  type      = xyplot
  datasets  = [
    "time"
    "Cathode OuterVoltage" "Cathode InnerVoltage" "Cathode QuasiFermiPotential" "Cathode DisplacementCurrent" "Cathode eCurrent"
    "Cathode hCurrent" "Cathode TotalCurrent" "Cathode Charge" "Anode OuterVoltage" "Anode InnerVoltage"
    "Anode QuasiFermiPotential" "Anode DisplacementCurrent" "Anode eCurrent" "Anode hCurrent" "Anode TotalCurrent"
    "Anode Charge" ]
  functions = [
    Time
    OuterVoltage InnerVoltage QuasiFermiPotential DisplacementCurrent eCurrent
    hCurrent TotalCurrent Charge OuterVoltage InnerVoltage
    QuasiFermiPotential DisplacementCurrent eCurrent hCurrent TotalCurrent
    Charge ]
}

Data {
      0.00000000000000E+00
      0.00000000000000E+00   0.00000000000000E+00   0.00000000000000E+00   0.00000000000000E+00   3.46943762317846E-27
      3.01278801610076E-26   3.35973177841860E-26   5.57600546692850E-16   0.00000000000000E+00   0.00000000000000E+00
      0.00000000000000E+00   0.00000000000000E+00  -3.46944144728139E-27  -3.01278763369046E-26  -3.35973177841860E-26
     -5.57600546692849E-16
      0.00000000000000E+00
      0.00000000000000E+00   0.00000000000000E+00   0.00000000000000E+00   0.00000000000000E+00  -1.80906581450408E-26
     -4.51374129349018E-27  -2.26043994385310E-26   5.57600536454662E-16   0.00000000000000E+00   0.00000000000000E+00
      0.00000000000000E+00   0.00000000000000E+00   1.80906559248383E-26   4.51374351369266E-27   2.26043994385310E-26
     -5.57600536454663E-16
      0.00000000000000E+00
      0.00000000000000E+00   0.00000000000000E+00   0.00000000000000E+00   0.00000000000000E+00   2.72598649971945E-27
     -1.63144564303783E-28   2.56284193541567E-27   5.57600536454661E-16   0.00000000000000E+00   0.00000000000000E+00
      0.00000000000000E+00   0.00000000000000E+00  -2.72598978435795E-27   1.63147848942281E-28  -2.56284193541567E-27
     -5.57600536454662E-16
      1.00000000000000E-03
      5.00000000000000E-02   5.00000000000000E-02   0.00000000000000E+00   0.00000000000000E+00   9.04146973522154E-19
      1.67492269045563E-19   1.07163924256772E-18   5.75904938099019E-16   0.00000000000000E+00   0.00000000000000E+00
      0.00000000000000E+00   0.00000000000000E+00  -3.69695472548541E-19  -7.01943770019176E-19  -1.07163924256772E-18
     -5.75904938099018E-16
      2.16444444444444E-03
      1.08222222222222E-01   1.08222222222222E-01   0.00000000000000E+00   0.00000000000000E+00   1.62543304171468E-18
      1.91280626871566E-19   1.81671366858624E-18   5.96512298106321E-16   0.00000000000000E+00   0.00000000000000E+00
      0.00000000000000E+00   0.00000000000000E+00  -4.15978944632430E-19  -1.40073472395382E-18  -1.81671366858625E-18
     -5.96512298106321E-16
      3.54107654320988E-03
      1.77053827160494E-01   1.77053827160494E-01   0.00000000000000E+00   0.00000000000000E+00   2.51013085028864E-18
      1.93221142861021E-19   2.70335199314967E-18   6.19990865192327E-16   0.00000000000000E+00   0.00000000000000E+00
      0.00000000000000E+00   0.00000000000000E+00  -4.18363721372237E-19  -2.28498827177743E-18  -2.70335199314966E-18
     -6.19990865192327E-16
      5.16856160219479E-03
      2.58428080109739E-01   2.58428080109739E-01   0.00000000000000E+00   0.00000000000000E+00   3.28304602557980E-18
      1.93898857942012E-19   3.47694488352181E-18   6.46647480599870E-16   0.00000000000000E+00   0.00000000000000E+00
      0.00000000000000E+00   0.00000000000000E+00  -4.19804953290714E-19  -3.05713993023110E-18  -3.47694488352182E-18
     -6.46647480599869E-16
      7.09261060526139E-03
      3.54630530263070E-01   3.54630530263070E-01   0.00000000000000E+00   0.00000000000000E+00   3.76849576232842E-18
      1.94693365019272E-19   3.96318912734769E-18   6.76808924085128E-16   0.00000000000000E+00   0.00000000000000E+00
      0.00000000000000E+00   0.00000000000000E+00  -4.21430658641965E-19  -3.54175846870572E-18  -3.96318912734768E-18
     -6.76808924085129E-16
      9.36726409333125E-03
      4.68363204666562E-01   4.68363204666562E-01   0.00000000000000E+00   0.00000000000000E+00   4.48163327687719E-18
      1.95592911926060E-19   4.67722618880325E-18   7.10819864791372E-16   0.00000000000000E+00   0.00000000000000E+00
      0.00000000000000E+00   0.00000000000000E+00  -4.23295059778815E-19  -4.25393112902443E-18  -4.67722618880325E-18
     -7.10819864791372E-16
      1.20564099947827E-02
      6.02820499739136E-01   6.02820499739136E-01   0.00000000000000E+00   0.00000000000000E+00   5.84493791649437E-18
      1.96606338001758E-19   6.04154425449613E-18   7.49038392303207E-16   0.00000000000000E+00   0.00000000000000E+00
      0.00000000000000E+00   0.00000000000000E+00  -4.25398418206757E-19  -5.61614583628937E-18  -6.04154425449613E-18
     -7.49038392303207E-16
      1.52355780382765E-02
      7.61778901913823E-01   7.61778901913823E-01   0.00000000000000E+00   0.00000000000000E+00   6.81993464886091E-18
      1.97650559654623E-19   7.01758520851554E-18   7.91843080598130E-16   0.00000000000000E+00   0.00000000000000E+00
      0.00000000000000E+00   0.00000000000000E+00  -4.27113622811904E-19  -6.59047158570363E-18  -7.01758520851554E-18
     -7.91843080598130E-16
      1.89940611474735E-02
      9.49703057373675E-01   9.49703057373675E-01   0.00000000000000E+00   0.00000000000000E+00   7.78907503043444E-18
      1.98367999864800E-19   7.98744303029924E-18   8.39641011571792E-16   0.00000000000000E+00   0.00000000000000E+00
      0.00000000000000E+00   0.00000000000000E+00  -4.28058248459532E-19  -7.55938478183969E-18  -7.98744303029922E-18
     -8.39641011571792E-16
      2.34374234010131E-02
      1.17187117005066E+00   1.17187117005066E+00   0.00000000000000E+00   0.00000000000000E+00   9.58532950574614E-18
      2.00528084667521E-19   9.78585759041366E-18   8.92854341029449E-16   0.00000000000000E+00   0.00000000000000E+00
      0.00000000000000E+00   0.00000000000000E+00  -4.33508364896532E-19  -9.35234922551712E-18  -9.78585759041365E-18
     -8.92854341029449E-16
      2.86509684451663E-02
      1.43254842225831E+00   1.43254842225831E+00   0.00000000000000E+00   0.00000000000000E+00   1.06149411420256E-17
      1.99447657996901E-19   1.08143888000225E-17   9.51508789257097E-16   0.00000000000000E+00   0.00000000000000E+00
      0.00000000000000E+00   0.00000000000000E+00  -4.36604084043904E-19  -1.03777847159785E-17  -1.08143888000224E-17
     -9.51508789257097E-16
      3.48145372529207E-02
      1.74072686264603E+00   1.74072686264603E+00   0.00000000000000E+00   0.00000000000000E+00   1.27475952252380E-17
      2.04015683293730E-19   1.29516109085318E-17   1.01651021564383E-15   0.00000000000000E+00   0.00000000000000E+00
      0.00000000000000E+00   0.00000000000000E+00  -4.40720538569574E-19  -1.25108903699622E-17  -1.29516109085318E-17
     -1.01651021564383E-15
      4.20464579873525E-02
      2.10232289936762E+00   2.10232289936762E+00   0.00000000000000E+00   0.00000000000000E+00   1.41194052906085E-17
      2.06065264704421E-19   1.43254705553129E-17   1.08788471176915E-15   0.00000000000000E+00   0.00000000000000E+00
      0.00000000000000E+00   0.00000000000000E+00  -4.44968942242422E-19  -1.38805016130705E-17  -1.43254705553129E-17
     -1.08788471176914E-15
      5.05319116490858E-02
      2.52659558245429E+00   2.52659558245429E+00   0.00000000000000E+00   0.00000000000000E+00   1.64075780919499E-17
      2.08412454596059E-19   1.66159905465460E-17   1.16622225321152E-15   0.00000000000000E+00   0.00000000000000E+00
      0.00000000000000E+00   0.00000000000000E+00  -4.49738290204919E-19  -1.61662522563411E-17  -1.66159905465460E-17
     -1.16622225321152E-15
      6.04881772788530E-02
      3.02440886394265E+00   3.02440886394265E+00   0.00000000000000E+00   0.00000000000000E+00   1.87101052627587E-17
      2.11101414221875E-19   1.89212066769806E-17   1.25229376123195E-15   0.00000000000000E+00   0.00000000000000E+00
      0.00000000000000E+00   0.00000000000000E+00  -4.55080416365835E-19  -1.84661262606147E-17  -1.89212066769806E-17
     -1.25229376123195E-15
      7.21701956177797E-02
      3.60850978088899E+00   3.60850978088899E+00   0.00000000000000E+00   0.00000000000000E+00   2.07197939448350E-17
      2.14328225856288E-19   2.09341221706912E-17   1.34689399801185E-15   0.00000000000000E+00   0.00000000000000E+00
      0.00000000000000E+00   0.00000000000000E+00  -4.61295150925648E-19  -2.04728270197656E-17  -2.09341221706912E-17
     -1.34689399801185E-15
      8.58770971354538E-02
      4.29385485677269E+00   4.29385485677269E+00   0.00000000000000E+00   0.00000000000000E+00   2.34331281019853E-17
      2.18080380184428E-19   2.36512084821697E-17   1.45011911120498E-15   0.00000000000000E+00   0.00000000000000E+00
      0.00000000000000E+00   0.00000000000000E+00  -4.68638324785000E-19  -2.31825701573847E-17  -2.36512084821697E-17
     -1.45011911120498E-15
      1.01959861582858E-01
      5.09799307914290E+00   5.09799307914290E+00   0.00000000000000E+00   0.00000000000000E+00   2.67238028678599E-17
      2.22237162944801E-19   2.69460400308047E-17   1.56291592364208E-15   0.00000000000000E+00   0.00000000000000E+00
      0.00000000000000E+00   0.00000000000000E+00  -4.77231409459061E-19  -2.64688086213456E-17  -2.69460400308047E-17
     -1.56291592364208E-15
      1.20830305201146E-01
      6.04151526005728E+00   6.04151526005728E+00   0.00000000000000E+00   0.00000000000000E+00   3.05182797152746E-17
      2.25124317213548E-19   3.07434040324881E-17   1.68833549322470E-15   0.00000000000000E+00   0.00000000000000E+00
      0.00000000000000E+00   0.00000000000000E+00  -4.87298812655354E-19  -3.02561052198328E-17  -3.07434040324882E-17
     -1.68833549322470E-15
      1.42971625713270E-01
      7.14858128566349E+00   7.14858128566349E+00   0.00000000000000E+00   0.00000000000000E+00   3.59226024194861E-17
      2.34413428211888E-19   3.61570158476980E-17   1.82336855498223E-15   0.00000000000000E+00   0.00000000000000E+00
      0.00000000000000E+00   0.00000000000000E+00  -4.99700459039869E-19  -3.56573153886581E-17  -3.61570158476980E-17
     -1.82336855498222E-15
      1.68753963376277E-01
      8.43769816881383E+00   8.43769816881383E+00   0.00000000000000E+00   0.00000000000000E+00   4.21179793172678E-17
      2.36745199459664E-19   4.23547245167274E-17   1.96179227576737E-15   0.00000000000000E+00   0.00000000000000E+00
      0.00000000000000E+00   0.00000000000000E+00  -5.13304875754111E-19  -4.18414196409733E-17  -4.23547245167274E-17
     -1.96179227576736E-15
      1.99005239567538E-01
      9.95026197837689E+00   9.95026197837689E+00   0.00000000000000E+00   0.00000000000000E+00   5.28668764650414E-17
      2.45452218387500E-19   5.31123286834289E-17   2.11625833820470E-15   0.00000000000000E+00   0.00000000000000E+00
      0.00000000000000E+00   0.00000000000000E+00  -5.25539737669717E-19  -5.25867889457592E-17  -5.31123286834289E-17
     -2.11625833820470E-15
      2.00000000000000E-01
      1.00000000000000E+01   1.00000000000000E+01   0.00000000000000E+00   0.00000000000000E+00   5.34421369108033E-17
      2.46293268570064E-19   5.36884301793734E-17   2.12131650565304E-15   0.00000000000000E+00   0.00000000000000E+00
      0.00000000000000E+00   0.00000000000000E+00  -5.25820325982834E-19  -5.31626098533906E-17  -5.36884301793734E-17
     -2.12131650565304E-15
      2.35494830731080E-01
      1.17747415365540E+01   1.17747415365540E+01   0.00000000000000E+00   0.00000000000000E+00   6.99846236449779E-17
      2.54370546942117E-19   7.02389941919201E-17   2.29999656613588E-15   0.00000000000000E+00   0.00000000000000E+00
      0.00000000000000E+00   0.00000000000000E+00  -5.41012958932905E-19  -6.96979812329872E-17  -7.02389941919201E-17
     -2.29999656613588E-15
      2.77142098788880E-01
      1.38571049394440E+01   1.38571049394440E+01   0.00000000000000E+00   0.00000000000000E+00   9.52901963452572E-17
      2.67671578438520E-19   9.55578679236957E-17   2.49208062696844E-15   0.00000000000000E+00   0.00000000000000E+00
      0.00000000000000E+00   0.00000000000000E+00  -5.58871173869765E-19  -9.49989967498260E-17  -9.55578679236957E-17
     -2.49208062696844E-15
      3.25638028705075E-01
      1.62819014352537E+01   1.62819014352537E+01   0.00000000000000E+00   0.00000000000000E+00   2.08489700938228E-16
      2.72177330528604E-19   2.08761878268756E-16   2.67652127916917E-15   0.00000000000000E+00   0.00000000000000E+00
      0.00000000000000E+00   0.00000000000000E+00  -5.66090839915673E-19  -2.08195787428841E-16  -2.08761878268756E-16
     -2.67652127916917E-15
      3.82539919806743E-01
      1.91269959903371E+01   1.91269959903371E+01   0.00000000000000E+00   0.00000000000000E+00   1.44673662117191E-15
      2.92145561165330E-19   1.44702876673307E-15   2.88494040542803E-15   0.00000000000000E+00   0.00000000000000E+00
      0.00000000000000E+00   0.00000000000000E+00  -6.01071779821029E-19  -1.44642769495325E-15  -1.44702876673307E-15
     -2.88494040542803E-15
      4.00000000000000E-01
      2.00000000000000E+01   2.00000000000000E+01   0.00000000000000E+00   0.00000000000000E+00   1.07738323427220E-16
     -4.39167346203899E-17   6.38215888068305E-17   2.94562518729577E-15   0.00000000000000E+00   0.00000000000000E+00
      0.00000000000000E+00   0.00000000000000E+00   3.23165033320852E-17  -9.61380921389157E-17  -6.38215888068306E-17
     -2.94562518729577E-15
      4.66259090971720E-01
      2.33129545485860E+01   2.33129545485860E+01   0.00000000000000E+00   0.00000000000000E+00   3.28634206111955E-17
     -3.20559367012179E-17   8.07483909977593E-19   3.17202555326948E-15   0.00000000000000E+00   0.00000000000000E+00
      0.00000000000000E+00   0.00000000000000E+00   4.68339447058050E-17  -4.76414286157826E-17  -8.07483909977593E-19
     -3.17202555326948E-15
      5.44592060742731E-01
      2.72296030371366E+01   2.72296030371366E+01   0.00000000000000E+00   0.00000000000000E+00   4.42833811719536E-17
     -3.70466529345693E-17   7.23672823738426E-18   3.43105857713608E-15   0.00000000000000E+00   0.00000000000000E+00
      0.00000000000000E+00   0.00000000000000E+00   6.39124269224543E-17  -7.11491551598385E-17  -7.23672823738427E-18
     -3.43105857713608E-15
      6.00000000000000E-01
      3.00000000000000E+01   3.00000000000000E+01   0.00000000000000E+00   0.00000000000000E+00   3.35795129691505E-16
     -2.11815137510991E-16   1.23979992180513E-16   3.58932937839611E-15   0.00000000000000E+00   0.00000000000000E+00
      0.00000000000000E+00   0.00000000000000E+00   1.19029368764388E-16  -2.43009360944902E-16  -1.23979992180514E-16
     -3.58932937839611E-15
      6.91214391466689E-01
      3.45607195733344E+01   3.45607195733344E+01   0.00000000000000E+00   0.00000000000000E+00   5.79775444651495E-16
     -4.01214153265378E-16   1.78561291386116E-16   3.83824275612827E-15   0.00000000000000E+00   0.00000000000000E+00
      0.00000000000000E+00   0.00000000000000E+00   2.11683829409516E-16  -3.90245120795631E-16  -1.78561291386116E-16
     -3.83824275612828E-15
      7.98239277454270E-01
      3.99119638727135E+01   3.99119638727135E+01   0.00000000000000E+00   0.00000000000000E+00   1.06862609121048E-15
     -7.84407048879923E-16   2.84219042330558E-16   4.11625440159776E-15   0.00000000000000E+00   0.00000000000000E+00
      0.00000000000000E+00   0.00000000000000E+00   4.27053689156664E-16  -7.11272731487222E-16  -2.84219042330559E-16
     -4.11625440159777E-15
      8.00000000000000E-01
      4.00000000000000E+01   4.00000000000000E+01   0.00000000000000E+00   0.00000000000000E+00   8.94071762010831E-17
     -6.52043396808497E-17   2.42028365202334E-17   4.12078209832613E-15   0.00000000000000E+00   0.00000000000000E+00
      0.00000000000000E+00   0.00000000000000E+00   1.31074731593266E-16  -1.55277568113500E-16  -2.42028365202335E-17
     -4.12078209832614E-15
      9.22721869265760E-01
      4.61360934632880E+01   4.61360934632880E+01   0.00000000000000E+00   0.00000000000000E+00   1.82948942173768E-15
     -1.43642639275713E-15   3.93063028980546E-16   4.43164815571253E-15   0.00000000000000E+00   0.00000000000000E+00
      0.00000000000000E+00   0.00000000000000E+00   7.95691873751316E-16  -1.18875490273186E-15  -3.93063028980546E-16
     -4.43164815571254E-15
      1.00000000000000E+00
      5.00000000000000E+01   5.00000000000000E+01   0.00000000000000E+00   0.00000000000000E+00   2.39497914539433E-15
     -1.93953589396850E-15   4.55443251425824E-16   4.61889155574470E-15   0.00000000000000E+00   0.00000000000000E+00
      0.00000000000000E+00   0.00000000000000E+00   1.08708518976465E-15  -1.54252844119047E-15  -4.55443251425825E-16
     -4.61889155574471E-15
}
