DF-ISE text

Info {
  version   = 1.0
  type      = xyplot
  datasets  = [
    "time"
    "Cathode OuterVoltage" "Cathode InnerVoltage" "Cathode QuasiFermiPotential" "Cathode DisplacementCurrent" "Cathode eCurrent"
    "Cathode hCurrent" "Cathode TotalCurrent" "Cathode Charge" "Anode OuterVoltage" "Anode InnerVoltage"
    "Anode QuasiFermiPotential" "Anode DisplacementCurrent" "Anode eCurrent" "Anode hCurrent" "Anode TotalCurrent"
    "Anode Charge" ]
  functions = [
    Time
    OuterVoltage InnerVoltage QuasiFermiPotential DisplacementCurrent eCurrent
    hCurrent TotalCurrent Charge OuterVoltage InnerVoltage
    QuasiFermiPotential DisplacementCurrent eCurrent hCurrent TotalCurrent
    Charge ]
}

Data {
      0.00000000000000E+00
      0.00000000000000E+00   0.00000000000000E+00   0.00000000000000E+00   0.00000000000000E+00   3.46943762317846E-27
      3.01278801610076E-26   3.35973177841860E-26   5.57600546692850E-16   0.00000000000000E+00   0.00000000000000E+00
      0.00000000000000E+00   0.00000000000000E+00  -3.46944144728139E-27  -3.01278763369046E-26  -3.35973177841860E-26
     -5.57600546692849E-16
      0.00000000000000E+00
      0.00000000000000E+00   0.00000000000000E+00   0.00000000000000E+00   0.00000000000000E+00  -1.80906581450408E-26
     -4.51374129349018E-27  -2.26043994385310E-26   5.57600536454662E-16   0.00000000000000E+00   0.00000000000000E+00
      0.00000000000000E+00   0.00000000000000E+00   1.80906559248383E-26   4.51374351369266E-27   2.26043994385310E-26
     -5.57600536454663E-16
      0.00000000000000E+00
      0.00000000000000E+00   0.00000000000000E+00   0.00000000000000E+00   0.00000000000000E+00   2.72598649971945E-27
     -1.63144564303783E-28   2.56284193541567E-27   5.57600536454661E-16   0.00000000000000E+00   0.00000000000000E+00
      0.00000000000000E+00   0.00000000000000E+00  -2.72598978435795E-27   1.63147848942281E-28  -2.56284193541567E-27
     -5.57600536454662E-16
      1.00000000000000E-03
      0.00000000000000E+00   0.00000000000000E+00   0.00000000000000E+00   0.00000000000000E+00  -2.92723749346239E-20
     -7.75264468971799E-21  -3.70250196243419E-20   5.57228324373829E-16   1.00000000000000E-03   1.00000000000000E-03
      0.00000000000000E+00   0.00000000000000E+00   1.73664943266135E-20   1.96585252977284E-20   3.70250196243419E-20
     -5.57228324373828E-16
      2.36444444444444E-03
      0.00000000000000E+00   0.00000000000000E+00   0.00000000000000E+00   0.00000000000000E+00  -7.04706336176343E-20
     -1.88233407769035E-20  -8.92939743945378E-20   5.56720060957911E-16   2.36444444444444E-03   2.36444444444444E-03
      0.00000000000000E+00   0.00000000000000E+00   4.21509685623692E-20   4.71430058321687E-20   8.92939743945379E-20
     -5.56720060957911E-16
      4.27466666666667E-03
      0.00000000000000E+00   0.00000000000000E+00   0.00000000000000E+00   0.00000000000000E+00  -1.30721175399695E-19
     -3.53312661624818E-20  -1.66052441562177E-19   5.56007713008900E-16   4.27466666666667E-03   4.27466666666667E-03
      0.00000000000000E+00   0.00000000000000E+00   7.90760139655426E-20   8.69764275966341E-20   1.66052441562177E-19
     -5.56007713008900E-16
      6.94897777777778E-03
      0.00000000000000E+00   0.00000000000000E+00   0.00000000000000E+00   0.00000000000000E+00  -2.20508159652165E-19
     -6.05768444672211E-20  -2.81085004119386E-19   5.55008892638128E-16   6.94897777777778E-03   6.94897777777778E-03
      0.00000000000000E+00   0.00000000000000E+00   1.35475810235708E-19   1.45609193883678E-19   2.81085004119386E-19
     -5.55008892638129E-16
      1.06454700246914E-02
      0.00000000000000E+00   0.00000000000000E+00   0.00000000000000E+00   0.00000000000000E+00  -3.56210288393590E-19
     -1.00033926855586E-19  -4.56244215249177E-19   5.53625339554883E-16   1.06454700246914E-02   1.06454700246914E-02
      0.00000000000000E+00   0.00000000000000E+00   2.23476032072059E-19   2.32768183177118E-19   4.56244215249176E-19
     -5.53625339554882E-16
      1.57548437526475E-02
      0.00000000000000E+00   0.00000000000000E+00   0.00000000000000E+00   0.00000000000000E+00  -5.69395375291723E-19
     -1.64685383929442E-19  -7.34080759221165E-19   5.51707260027076E-16   1.57548437526475E-02   1.57548437526475E-02
      0.00000000000000E+00   0.00000000000000E+00   3.67339261170859E-19   3.66741498050306E-19   7.34080759221165E-19
     -5.51707260027076E-16
      2.28171336610668E-02
      0.00000000000000E+00   0.00000000000000E+00   0.00000000000000E+00   0.00000000000000E+00  -9.23842491578805E-19
     -2.77796244186047E-19  -1.20163873576485E-18   5.49045036626155E-16   2.28171336610668E-02   2.28171336610668E-02
      0.00000000000000E+00   0.00000000000000E+00   6.18284250639590E-19   5.83354485125262E-19   1.20163873576485E-18
     -5.49045036626155E-16
      3.25787877122597E-02
      0.00000000000000E+00   0.00000000000000E+00   0.00000000000000E+00   0.00000000000000E+00  -1.56431593767842E-18
     -4.94568158147654E-19  -2.05888409582608E-18   5.45343895906254E-16   3.25787877122597E-02   3.25787877122597E-02
      0.00000000000000E+00   0.00000000000000E+00   1.09738189083999E-18   9.61502204986084E-19   2.05888409582607E-18
     -5.45343895906255E-16
      4.60715628674642E-02
      0.00000000000000E+00   0.00000000000000E+00   0.00000000000000E+00   0.00000000000000E+00  -2.87136172361062E-18
     -9.66176964916265E-19  -3.83753868852689E-18   5.40186423777364E-16   4.60715628674642E-02   4.60715628674642E-02
      0.00000000000000E+00   0.00000000000000E+00   2.13493155126984E-18   1.70260713725705E-18   3.83753868852689E-18
     -5.40186423777364E-16
      6.47215765264356E-02
      0.00000000000000E+00   0.00000000000000E+00   0.00000000000000E+00   0.00000000000000E+00  -6.05212037816126E-18
     -2.19061465206276E-18  -8.24273503022402E-18   5.32975622297609E-16   6.47215765264356E-02   6.47215765264356E-02
      0.00000000000000E+00   0.00000000000000E+00   4.81558696860514E-18   3.42714806161889E-18   8.24273503022403E-18
     -5.32975622297609E-16
      8.47215765264356E-02
      0.00000000000000E+00   0.00000000000000E+00   0.00000000000000E+00   0.00000000000000E+00  -1.29001344969930E-17
     -4.96870287667936E-18  -1.78688373736724E-17   5.25132982747473E-16   8.47215765264356E-02   8.47215765264356E-02
      0.00000000000000E+00   0.00000000000000E+00   1.08764049483406E-17   6.99243242533179E-18   1.78688373736724E-17
     -5.25132982747472E-16
      1.04721576526436E-01
      0.00000000000000E+00   0.00000000000000E+00   0.00000000000000E+00   0.00000000000000E+00  -2.71957140748540E-17
     -1.09834030557968E-17  -3.81791171306508E-17   5.17171494093302E-16   1.04721576526436E-01   1.04721576526436E-01
      0.00000000000000E+00   0.00000000000000E+00   2.39773453201697E-17   1.42017718104810E-17   3.81791171306508E-17
     -5.17171494093302E-16
      1.24721576526436E-01
      0.00000000000000E+00   0.00000000000000E+00   0.00000000000000E+00   0.00000000000000E+00  -5.73799433806651E-17
     -2.40062567597429E-17  -8.13862001404080E-17   5.09085491579770E-16   1.24721576526436E-01   1.24721576526436E-01
      0.00000000000000E+00   0.00000000000000E+00   5.23282927248374E-17   2.90579074155708E-17   8.13862001404082E-17
     -5.09085491579769E-16
      1.44721576526436E-01
      0.00000000000000E+00   0.00000000000000E+00   0.00000000000000E+00   0.00000000000000E+00  -1.21587760937218E-16
     -5.22031073489844E-17  -1.73790868286203E-16   5.00868851867647E-16   1.44721576526436E-01   1.44721576526436E-01
      0.00000000000000E+00   0.00000000000000E+00   1.13706204204740E-16   6.00846640814627E-17   1.73790868286203E-16
     -5.00868851867647E-16
      1.64721576526436E-01
      0.00000000000000E+00   0.00000000000000E+00   0.00000000000000E+00   0.00000000000000E+00  -2.58864552687992E-16
     -1.13253789990438E-16  -3.72118342678430E-16   4.92514955912124E-16   1.64721576526436E-01   1.64721576526436E-01
      0.00000000000000E+00   0.00000000000000E+00   2.46599797561090E-16   1.25518545117340E-16   3.72118342678430E-16
     -4.92514955912124E-16
      1.84721576526436E-01
      0.00000000000000E+00   0.00000000000000E+00   0.00000000000000E+00   0.00000000000000E+00  -5.53410924836590E-16
     -2.45436139784448E-16  -7.98847064621038E-16   4.84016645556540E-16   1.84721576526436E-01   1.84721576526436E-01
      0.00000000000000E+00   0.00000000000000E+00   5.34341094199886E-16   2.64505970421152E-16   7.98847064621038E-16
     -4.84016645556541E-16
      2.04721576526436E-01
      0.00000000000000E+00   0.00000000000000E+00   0.00000000000000E+00   0.00000000000000E+00  -1.18700813596369E-15
     -5.31622063006066E-16  -1.71863019896975E-15   4.75366169560121E-16   2.04721576526436E-01   2.04721576526436E-01
      0.00000000000000E+00   0.00000000000000E+00   1.15735173952831E-15   5.61278459441444E-16   1.71863019896975E-15
     -4.75366169560122E-16
      2.24721576526436E-01
      0.00000000000000E+00   0.00000000000000E+00   0.00000000000000E+00   0.00000000000000E+00  -2.55241498756136E-15
     -1.15122601597858E-15  -3.70364100353995E-15   4.66555113882997E-16   2.24721576526436E-01   2.24721576526436E-01
      0.00000000000000E+00   0.00000000000000E+00   2.50625500593855E-15   1.19738599760140E-15   3.70364100353995E-15
     -4.66555113882997E-16
      2.44721576526436E-01
      0.00000000000000E+00   0.00000000000000E+00   0.00000000000000E+00   0.00000000000000E+00  -5.49870220814671E-15
     -2.49266386247304E-15  -7.99136607061975E-15   4.57574310576433E-16   2.44721576526436E-01   2.44721576526436E-01
      0.00000000000000E+00   0.00000000000000E+00   5.42675399649919E-15   2.56461207412055E-15   7.99136607061974E-15
     -4.57574310576434E-16
      2.50000000000000E-01
      0.00000000000000E+00   0.00000000000000E+00   0.00000000000000E+00   0.00000000000000E+00  -6.73493994063407E-15
     -3.05635734328226E-15  -9.79129728391633E-15   4.55174533238185E-16   2.50000000000000E-01   2.50000000000000E-01
      0.00000000000000E+00   0.00000000000000E+00   6.65402650346638E-15   3.13727078044996E-15   9.79129728391634E-15
     -4.55174533238184E-16
      2.70000000000000E-01
      0.00000000000000E+00   0.00000000000000E+00   0.00000000000000E+00   0.00000000000000E+00  -1.45332553886716E-14
     -6.61714588282878E-15  -2.11504012715004E-14   4.45964693557341E-16   2.70000000000000E-01   2.70000000000000E-01
      0.00000000000000E+00   0.00000000000000E+00   1.44068228501165E-14   6.74357842138391E-15   2.11504012715004E-14
     -4.45964693557340E-16
      2.90000000000000E-01
      0.00000000000000E+00   0.00000000000000E+00   0.00000000000000E+00   0.00000000000000E+00  -3.13895296687364E-14
     -1.43258040124315E-14  -4.57153336811679E-14   4.36560892803121E-16   2.90000000000000E-01   2.90000000000000E-01
      0.00000000000000E+00   0.00000000000000E+00   3.11914529194216E-14   1.45238807617464E-14   4.57153336811679E-14
     -4.36560892803121E-16
      3.10000000000000E-01
      0.00000000000000E+00   0.00000000000000E+00   0.00000000000000E+00   0.00000000000000E+00  -6.78401518744527E-14
     -3.10136045517462E-14  -9.88537564261990E-14   4.26950510064098E-16   3.10000000000000E-01   3.10000000000000E-01
      0.00000000000000E+00   0.00000000000000E+00   6.75288053259795E-14   3.13249511002196E-14   9.88537564261990E-14
     -4.26950510064098E-16
      3.30000000000000E-01
      0.00000000000000E+00   0.00000000000000E+00   0.00000000000000E+00   0.00000000000000E+00  -1.46685447535672E-13
     -6.71385225909835E-14  -2.13823970126656E-13   4.17119434290023E-16   3.30000000000000E-01   3.30000000000000E-01
      0.00000000000000E+00   0.00000000000000E+00   1.46194016230323E-13   6.76299538963329E-14   2.13823970126656E-13
     -4.17119434290024E-16
      3.50000000000000E-01
      0.00000000000000E+00   0.00000000000000E+00   0.00000000000000E+00   0.00000000000000E+00  -3.17267613126148E-13
     -1.45337478417605E-13  -4.62605091543752E-13   4.07051800408745E-16   3.50000000000000E-01   3.50000000000000E-01
      0.00000000000000E+00   0.00000000000000E+00   3.16487858885562E-13   1.46117232658191E-13   4.62605091543753E-13
     -4.07051800408745E-16
      3.70000000000000E-01
      0.00000000000000E+00   0.00000000000000E+00   0.00000000000000E+00   0.00000000000000E+00  -6.86371968582696E-13
     -3.14607575618152E-13  -1.00097954420085E-12   3.96729693731948E-16   3.70000000000000E-01   3.70000000000000E-01
      0.00000000000000E+00   0.00000000000000E+00   6.85126550958560E-13   3.15852993242290E-13   1.00097954420085E-12
     -3.96729693731948E-16
      3.90000000000000E-01
      0.00000000000000E+00   0.00000000000000E+00   0.00000000000000E+00   0.00000000000000E+00  -1.48510374625225E-12
     -6.80997451627235E-13  -2.16610119787949E-12   3.86132824583883E-16   3.90000000000000E-01   3.90000000000000E-01
      0.00000000000000E+00   0.00000000000000E+00   1.48309808124602E-12   6.83003116633468E-13   2.16610119787949E-12
     -3.86132824583883E-16
      4.10000000000000E-01
      0.00000000000000E+00   0.00000000000000E+00   0.00000000000000E+00   0.00000000000000E+00  -3.21361842770360E-12
     -1.47402659302412E-12  -4.68764502072772E-12   3.75238171673639E-16   4.10000000000000E-01   4.10000000000000E-01
      0.00000000000000E+00   0.00000000000000E+00   3.21035510464258E-12   1.47728991608515E-12   4.68764502072773E-12
     -3.75238171673639E-16
      4.30000000000000E-01
      0.00000000000000E+00   0.00000000000000E+00   0.00000000000000E+00   0.00000000000000E+00  -6.95432297880983E-12
     -3.19041491318205E-12  -1.01447378919919E-11   3.64019585998982E-16   4.30000000000000E-01   4.30000000000000E-01
      0.00000000000000E+00   0.00000000000000E+00   6.94894605010411E-12   3.19579184188776E-12   1.01447378919919E-11
     -3.64019585998982E-16
      4.50000000000000E-01
      0.00000000000000E+00   0.00000000000000E+00   0.00000000000000E+00   0.00000000000000E+00  -1.50496137217110E-11
     -6.90508769394847E-12  -2.19547014156595E-11   3.52447337501729E-16   4.50000000000000E-01   4.50000000000000E-01
      0.00000000000000E+00   0.00000000000000E+00   1.50406186647583E-11   6.91408275090122E-12   2.19547014156595E-11
     -3.52447337501730E-16
      4.70000000000000E-01
      0.00000000000000E+00   0.00000000000000E+00   0.00000000000000E+00   0.00000000000000E+00  -3.25683279053592E-11
     -1.49440778473959E-11  -4.75124057527550E-11   3.40487576858451E-16   4.70000000000000E-01   4.70000000000000E-01
      0.00000000000000E+00   0.00000000000000E+00   3.25530088859062E-11   1.49593968668488E-11   4.75124057527550E-11
     -3.40487576858451E-16
      4.90000000000000E-01
      0.00000000000000E+00   0.00000000000000E+00   0.00000000000000E+00   0.00000000000000E+00  -7.04784637160108E-11
     -3.23402905144428E-11  -1.02818754230454E-10   3.28101680747187E-16   4.90000000000000E-01   4.90000000000000E-01
      0.00000000000000E+00   0.00000000000000E+00   7.04518375410940E-11   3.23669166893594E-11   1.02818754230453E-10
     -3.28101680747187E-16
      5.00000000000000E-01
      0.00000000000000E+00   0.00000000000000E+00   0.00000000000000E+00   0.00000000000000E+00  -1.03676618354499E-10
     -4.75740975535643E-11  -1.51250715908063E-10   3.21735364891596E-16   5.00000000000000E-01   5.00000000000000E-01
      0.00000000000000E+00   0.00000000000000E+00   1.03641222154369E-10   4.76094937536942E-11   1.51250715908063E-10
     -3.21735364891596E-16
      5.20000000000000E-01
      0.00000000000000E+00   0.00000000000000E+00   0.00000000000000E+00   0.00000000000000E+00  -2.24342844647940E-10
     -1.02943526545204E-10  -3.27286371193144E-10   3.08625432142828E-16   5.20000000000000E-01   5.20000000000000E-01
      0.00000000000000E+00   0.00000000000000E+00   2.24279182944461E-10   1.03007188248683E-10   3.27286371193144E-10
     -3.08625432142828E-16
      5.40000000000000E-01
      0.00000000000000E+00   0.00000000000000E+00   0.00000000000000E+00   0.00000000000000E+00  -4.85412530165414E-10
     -2.22734184624036E-10  -7.08146714789450E-10   2.94966511075845E-16   5.40000000000000E-01   5.40000000000000E-01
      0.00000000000000E+00   0.00000000000000E+00   4.85295254377581E-10   2.22851460411869E-10   7.08146714789450E-10
     -2.94966511075845E-16
      5.60000000000000E-01
      0.00000000000000E+00   0.00000000000000E+00   0.00000000000000E+00   0.00000000000000E+00  -1.05017309040244E-09
     -4.81858334518832E-10  -1.53203142492127E-09   2.80696775514781E-16   5.60000000000000E-01   5.60000000000000E-01
      0.00000000000000E+00   0.00000000000000E+00   1.04995186991242E-09   4.82079555008849E-10   1.53203142492127E-09
     -2.80696775514781E-16
      5.80000000000000E-01
      0.00000000000000E+00   0.00000000000000E+00   0.00000000000000E+00   0.00000000000000E+00  -2.27161085016272E-09
     -1.04224385541112E-09  -3.31385470557384E-09   2.65746808143411E-16   5.80000000000000E-01   5.80000000000000E-01
      0.00000000000000E+00   0.00000000000000E+00   2.27118412822344E-09   1.04267057735040E-09   3.31385470557384E-09
     -2.65746808143411E-16
      6.00000000000000E-01
      0.00000000000000E+00   0.00000000000000E+00   0.00000000000000E+00   0.00000000000000E+00  -4.91220770813532E-09
     -2.25363407688489E-09  -7.16584178502021E-09   2.50041461523909E-16   6.00000000000000E-01   6.00000000000000E-01
      0.00000000000000E+00   0.00000000000000E+00   4.91136790212550E-09   2.25447388289472E-09   7.16584178502021E-09
     -2.50041461523909E-16
      6.20000000000000E-01
      0.00000000000000E+00   0.00000000000000E+00   0.00000000000000E+00   0.00000000000000E+00  -1.06165207190558E-08
     -4.87027466684052E-09  -1.54867953858963E-08   2.33505565490345E-16   6.20000000000000E-01   6.20000000000000E-01
      0.00000000000000E+00   0.00000000000000E+00   1.06148395690520E-08   4.87195581684437E-09   1.54867953858963E-08
     -2.33505565490345E-16
      6.40000000000000E-01
      0.00000000000000E+00   0.00000000000000E+00   0.00000000000000E+00   0.00000000000000E+00  -2.29208254059863E-08
     -1.05137214306436E-08  -3.34345468366298E-08   2.16076988344884E-16   6.40000000000000E-01   6.40000000000000E-01
      0.00000000000000E+00   0.00000000000000E+00   2.29174151486920E-08   1.05171316879379E-08   3.34345468366299E-08
     -2.16076988344884E-16
      6.60000000000000E-01
      0.00000000000000E+00   0.00000000000000E+00   0.00000000000000E+00   0.00000000000000E+00  -4.93813767306244E-08
     -2.26479311255558E-08  -7.20293078561802E-08   1.97732789606139E-16   6.60000000000000E-01   6.60000000000000E-01
      0.00000000000000E+00   0.00000000000000E+00   4.93744004680861E-08   2.26549073880940E-08   7.20293078561801E-08
     -1.97732789606140E-16
      6.80000000000000E-01
      0.00000000000000E+00   0.00000000000000E+00   0.00000000000000E+00   0.00000000000000E+00  -1.05935144753744E-07
     -4.85753318606391E-08  -1.54510476614383E-07   1.78536694301973E-16   6.80000000000000E-01   6.80000000000000E-01
      0.00000000000000E+00   0.00000000000000E+00   1.05920851125676E-07   4.85896254887063E-08   1.54510476614383E-07
     -1.78536694301973E-16
      7.00000000000000E-01
      0.00000000000000E+00   0.00000000000000E+00   0.00000000000000E+00   0.00000000000000E+00  -2.25306241854190E-07
     -1.03277734569255E-07  -3.28583976423446E-07   1.58715370602192E-16   7.00000000000000E-01   7.00000000000000E-01
      0.00000000000000E+00   0.00000000000000E+00   2.25277221415626E-07   1.03306755007819E-07   3.28583976423446E-07
     -1.58715370602192E-16
      7.20000000000000E-01
      0.00000000000000E+00   0.00000000000000E+00   0.00000000000000E+00   0.00000000000000E+00  -4.71211688482441E-07
     -2.15881663161887E-07  -6.87093351644328E-07   1.38754593579072E-16   7.20000000000000E-01   7.20000000000000E-01
      0.00000000000000E+00   0.00000000000000E+00   4.71154282880522E-07   2.15939068763806E-07   6.87093351644328E-07
     -1.38754593579071E-16
      7.40000000000000E-01
      0.00000000000000E+00   0.00000000000000E+00   0.00000000000000E+00   0.00000000000000E+00  -9.56077086477041E-07
     -4.37644456240179E-07  -1.39372154271722E-06   1.19450888378274E-16   7.40000000000000E-01   7.40000000000000E-01
      0.00000000000000E+00   0.00000000000000E+00   9.55969038537241E-07   4.37752504179977E-07   1.39372154271722E-06
     -1.19450888378274E-16
      7.50000000000000E-01
      0.00000000000000E+00   0.00000000000000E+00   0.00000000000000E+00   0.00000000000000E+00  -1.33898724666581E-06
     -6.12576692238253E-07  -1.95156393890406E-06   1.10352483584283E-16   7.50000000000000E-01   7.50000000000000E-01
      0.00000000000000E+00   0.00000000000000E+00   1.33884289346452E-06   6.12721045439541E-07   1.95156393890406E-06
     -1.10352483584283E-16
      7.70000000000000E-01
      0.00000000000000E+00   0.00000000000000E+00   0.00000000000000E+00   0.00000000000000E+00  -2.51024384937021E-06
     -1.14689151476218E-06  -3.65713536413238E-06   9.38198135574452E-17   7.70000000000000E-01   7.70000000000000E-01
      0.00000000000000E+00   0.00000000000000E+00   2.51000207512180E-06   1.14713328901059E-06   3.65713536413238E-06
     -9.38198135574451E-17
      7.90000000000000E-01
      0.00000000000000E+00   0.00000000000000E+00   0.00000000000000E+00   0.00000000000000E+00  -4.38632206812058E-06
     -2.00135597406689E-06  -6.38767804218748E-06   7.99089862443229E-17   7.90000000000000E-01   7.90000000000000E-01
      0.00000000000000E+00   0.00000000000000E+00   4.38595036622859E-06   2.00172767595889E-06   6.38767804218749E-06
     -7.99089862443230E-17
      8.10000000000000E-01
      0.00000000000000E+00   0.00000000000000E+00   0.00000000000000E+00   0.00000000000000E+00  -7.12439058673271E-06
     -3.24755186823505E-06  -1.03719424549678E-05   6.86159801343411E-17   8.10000000000000E-01   8.10000000000000E-01
      0.00000000000000E+00   0.00000000000000E+00   7.12385958381738E-06   3.24808287115040E-06   1.03719424549678E-05
     -6.86159801343411E-17
      8.30000000000000E-01
      0.00000000000000E+00   0.00000000000000E+00   0.00000000000000E+00   0.00000000000000E+00  -1.08204025632375E-05
     -4.93097240261406E-06  -1.57513749658515E-05   5.95753818869456E-17   8.30000000000000E-01   8.30000000000000E-01
      0.00000000000000E+00   0.00000000000000E+00   1.08196851449192E-05   4.93168982093236E-06   1.57513749658515E-05
     -5.95753818869457E-17
      8.50000000000000E-01
      0.00000000000000E+00   0.00000000000000E+00   0.00000000000000E+00   0.00000000000000E+00  -1.55168059892883E-05
     -7.07483502697637E-06  -2.25916410162647E-05   5.23252464393588E-17   8.50000000000000E-01   8.50000000000000E-01
      0.00000000000000E+00   0.00000000000000E+00   1.55158751451697E-05   7.07576587109499E-06   2.25916410162647E-05
     -5.23252464393588E-17
      8.70000000000000E-01
      0.00000000000000E+00   0.00000000000000E+00   0.00000000000000E+00   0.00000000000000E+00  -2.12173237920731E-05
     -9.68632893601556E-06  -3.09036527280886E-05   4.64533411415997E-17   8.70000000000000E-01   8.70000000000000E-01
      0.00000000000000E+00   0.00000000000000E+00   2.12161512271784E-05   9.68750150091025E-06   3.09036527280887E-05
     -4.64533411415997E-17
      8.90000000000000E-01
      0.00000000000000E+00   0.00000000000000E+00   0.00000000000000E+00   0.00000000000000E+00  -2.78979764145760E-05
     -1.27608954279993E-05  -4.06588718425753E-05   4.16363602652796E-17   8.90000000000000E-01   8.90000000000000E-01
      0.00000000000000E+00   0.00000000000000E+00   2.78965322405181E-05   1.27623396020572E-05   4.06588718425752E-05
     -4.16363602652795E-17
      9.10000000000000E-01
      0.00000000000000E+00   0.00000000000000E+00   0.00000000000000E+00   0.00000000000000E+00  -3.55137214763260E-05
     -1.62845818591848E-05  -5.17983033355108E-05   3.76327119191698E-17   9.10000000000000E-01   9.10000000000000E-01
      0.00000000000000E+00   0.00000000000000E+00   3.55119746684433E-05   1.62863286670676E-05   5.17983033355108E-05
     -3.76327119191698E-17
      9.30000000000000E-01
      0.00000000000000E+00   0.00000000000000E+00   0.00000000000000E+00   0.00000000000000E+00  -4.40026407411270E-05
     -2.02354271498215E-05  -6.42380678909485E-05   3.42641003816890E-17   9.30000000000000E-01   9.30000000000000E-01
      0.00000000000000E+00   0.00000000000000E+00   4.40005600277295E-05   2.02375078632190E-05   6.42380678909485E-05
     -3.42641003816890E-17
      9.50000000000000E-01
      0.00000000000000E+00   0.00000000000000E+00   0.00000000000000E+00   0.00000000000000E+00  -5.32891523828211E-05
     -2.45845379023708E-05  -7.78736902851919E-05   3.13984200742653E-17   9.50000000000000E-01   9.50000000000000E-01
      0.00000000000000E+00   0.00000000000000E+00   5.32867073249397E-05   2.45869829602522E-05   7.78736902851919E-05
     -3.13984200742653E-17
      9.70000000000000E-01
      0.00000000000000E+00   0.00000000000000E+00   0.00000000000000E+00   0.00000000000000E+00  -6.32870048825362E-05
     -2.92971749531117E-05  -9.25841798356478E-05   2.89366779203019E-17   9.70000000000000E-01   9.70000000000000E-01
      0.00000000000000E+00   0.00000000000000E+00   6.32841669733409E-05   2.93000128623069E-05   9.25841798356478E-05
     -2.89366779203019E-17
      9.90000000000000E-01
      0.00000000000000E+00   0.00000000000000E+00   0.00000000000000E+00   0.00000000000000E+00  -7.39023848586315E-05
     -3.43339793714024E-05  -1.08236364230034E-04   2.68036246138837E-17   9.90000000000000E-01   9.90000000000000E-01
      0.00000000000000E+00   0.00000000000000E+00   7.38991285167258E-05   3.43372357133083E-05   1.08236364230034E-04
     -2.68036246138837E-17
      1.00000000000000E+00
      0.00000000000000E+00   0.00000000000000E+00   0.00000000000000E+00   0.00000000000000E+00  -7.94110549949850E-05
     -3.69607174651255E-05  -1.16371772460111E-04   2.58416720177528E-17   1.00000000000000E+00   1.00000000000000E+00
      0.00000000000000E+00   0.00000000000000E+00   7.94075809821470E-05   3.69641914779636E-05   1.16371772460111E-04
     -2.58416720177528E-17
}
