# vtk DataFile Version 3.0
Vela TCAD output
ASCII
DATASET UNSTRUCTURED_GRID
POINTS 15 double
0 0 0.0
2.5e-07 0 0.0
5e-07 0 0.0
7.5e-07 0 0.0
1e-06 0 0.0
0 2e-07 0.0
2.5e-07 2e-07 0.0
5e-07 2e-07 0.0
7.5e-07 2e-07 0.0
1e-06 2e-07 0.0
0 4e-07 0.0
2.5e-07 4e-07 0.0
5e-07 4e-07 0.0
7.5e-07 4e-07 0.0
1e-06 4e-07 0.0
CELLS 16 64
3 0 1 6
3 0 6 5
3 1 2 7
3 1 7 6
3 2 3 8
3 2 8 7
3 3 4 9
3 3 9 8
3 5 6 11
3 5 11 10
3 6 7 12
3 6 12 11
3 7 8 13
3 7 13 12
3 8 9 14
3 8 14 13
CELL_TYPES 16
5
5
5
5
5
5
5
5
5
5
5
5
5
5
5
5
CELL_DATA 16
SCALARS region_id int 1
LOOKUP_TABLE default
POINT_DATA 15
SCALARS Potential double 1
LOOKUP_TABLE default
-0.339239
-0.297632
0.297632
-0.326033
-0.339239
-0.33305
-0.271929
0.0714515
-0.310465
-0.379288
-0.339239
-0.326033
0.247632
-0.397632
-0.439239
SCALARS ElectronQuasiFermi double 1
LOOKUP_TABLE default
0
0
0
0
0
-0.0239651
-0.0311471
-0.0330611
-0.0354169
-0.0407808
0
0
-0.05
-0.1
-0.1
SCALARS HoleQuasiFermi double 1
LOOKUP_TABLE default
0
0
0
0
0
-3.30881e-09
-2.70038e-08
-0.012848
-0.0351686
-0.0464998
0
0
-0.05
-0.1
-0.1
SCALARS Electrons double 1
LOOKUP_TABLE default
2e+10
1e+11
1e+21
3.33333e+10
2e+10
6.42098e+10
9.01666e+11
5.69815e+17
2.39552e+11
2.05743e+10
2e+10
3.33333e+10
1e+21
1e+11
2e+10
SCALARS Holes double 1
LOOKUP_TABLE default
5e+21
1e+21
1e+11
3e+21
5e+21
3.93545e+21
3.70001e+20
3.83557e+14
4.21474e+20
3.89584e+21
5e+21
3e+21
1e+11
1e+21
5e+21
SCALARS NetDoping double 1
LOOKUP_TABLE default
-5e+21
-1e+21
1e+21
-3e+21
-5e+21
-5e+21
-2e+21
1e+21
-2e+21
-5e+21
-5e+21
-3e+21
1e+21
-1e+21
-5e+21
