# vtk DataFile Version 3.0
Vela TCAD output
ASCII
DATASET UNSTRUCTURED_GRID
POINTS 15 double
0 0 0.0
4e-07 0 0.0
8e-07 0 0.0
0 2e-07 0.0
4e-07 2e-07 0.0
8e-07 2e-07 0.0
0 4e-07 0.0
4e-07 4e-07 0.0
8e-07 4e-07 0.0
0 7e-07 0.0
4e-07 7e-07 0.0
8e-07 7e-07 0.0
0 1e-06 0.0
4e-07 1e-06 0.0
8e-07 1e-06 0.0
CELLS 16 64
3 0 1 4
3 0 4 3
3 1 2 5
3 1 5 4
3 3 4 7
3 3 7 6
3 4 5 8
3 4 8 7
3 6 7 10
3 6 10 9
3 7 8 11
3 7 11 10
3 9 10 13
3 9 13 12
3 10 11 14
3 10 14 13
CELL_TYPES 16
5
5
5
5
5
5
5
5
5
5
5
5
5
5
5
5
CELL_DATA 16
SCALARS region_id int 1
LOOKUP_TABLE default
POINT_DATA 15
SCALARS Potential double 1
LOOKUP_TABLE default
-0.289239
-0.289239
-0.289239
-0.236953
-0.249307
-0.249642
-0.196117
-0.183035
-0.111468
-0.279713
-0.261794
0
-0.297632
-0.297632
-0.297632
SCALARS ElectronQuasiFermi double 1
LOOKUP_TABLE default
0.05
0.05
0.05
0.00497042
0.00388877
0.00188164
0.00205135
0.000890549
4.94154e-05
0
0
0
0
0
0
SCALARS HoleQuasiFermi double 1
LOOKUP_TABLE default
0.05
0.05
0.05
0.0482662
0.0489998
0.0497723
0.0333432
0.0369642
0.0469331
0
0
0
0
0
0
SCALARS Electrons double 1
LOOKUP_TABLE default
2e+10
2e+10
2e+10
8.62716e+11
5.57826e+11
5.95096e+11
4.68723e+12
8.13181e+12
1.33843e+14
2e+11
4e+11
1e+16
1e+11
1e+11
1e+11
SCALARS Holes double 1
LOOKUP_TABLE default
5e+21
5e+21
5e+21
6.18685e+20
1.02644e+21
1.07137e+21
7.15753e+19
4.96391e+19
4.58161e+18
5e+20
2.5e+20
1e+16
1e+21
1e+21
1e+21
SCALARS NetDoping double 1
LOOKUP_TABLE default
-5e+21
-5e+21
-5e+21
-3.33333e+20
-1.5e+21
-2.66667e+21
1e+21
1.25e+21
1.5e+21
-5e+20
-2.5e+20
0
-1e+21
-1e+21
-1e+21
