# vtk DataFile Version 3.0
Vela TCAD output
ASCII
DATASET UNSTRUCTURED_GRID
POINTS 15 double
0 0 0.0
4e-07 0 0.0
8e-07 0 0.0
0 2e-07 0.0
4e-07 2e-07 0.0
8e-07 2e-07 0.0
0 4e-07 0.0
4e-07 4e-07 0.0
8e-07 4e-07 0.0
0 7e-07 0.0
4e-07 7e-07 0.0
8e-07 7e-07 0.0
0 1e-06 0.0
4e-07 1e-06 0.0
8e-07 1e-06 0.0
CELLS 16 64
3 0 1 4
3 0 4 3
3 1 2 5
3 1 5 4
3 3 4 7
3 3 7 6
3 4 5 8
3 4 8 7
3 6 7 10
3 6 10 9
3 7 8 11
3 7 11 10
3 9 10 13
3 9 13 12
3 10 11 14
3 10 14 13
CELL_TYPES 16
5
5
5
5
5
5
5
5
5
5
5
5
5
5
5
5
CELL_DATA 16
SCALARS region_id int 1
LOOKUP_TABLE default
POINT_DATA 15
SCALARS Potential double 1
LOOKUP_TABLE default
-0.239239
-0.239239
-0.239239
-0.193827
-0.204837
-0.204593
-0.168451
-0.155079
-0.084015
-0.279713
-0.261794
0
-0.297632
-0.297632
-0.297632
SCALARS ElectronQuasiFermi double 1
LOOKUP_TABLE default
0.1
0.1
0.1
0.00960835
0.00692932
0.00293936
0.00492579
0.00219048
0.000155024
0
0
0
0
0
0
SCALARS HoleQuasiFermi double 1
LOOKUP_TABLE default
0.1
0.1
0.1
0.0962452
0.0976535
0.0994243
0.0710496
0.0773562
0.0945508
0
0
0
0
0
0
SCALARS Electrons double 1
LOOKUP_TABLE default
2e+10
2e+10
2e+10
3.82327e+12
2.76998e+12
3.26295e+12
1.22293e+13
2.28032e+13
3.85484e+14
2e+11
4e+11
1e+16
1e+11
1e+11
1e+11
SCALARS Holes double 1
LOOKUP_TABLE default
5e+21
5e+21
5e+21
7.46447e+20
1.20676e+21
1.28016e+21
1.05543e+20
8.03032e+19
9.99476e+18
5e+20
2.5e+20
1e+16
1e+21
1e+21
1e+21
SCALARS NetDoping double 1
LOOKUP_TABLE default
-5e+21
-5e+21
-5e+21
-3.33333e+20
-1.5e+21
-2.66667e+21
1e+21
1.25e+21
1.5e+21
-5e+20
-2.5e+20
0
-1e+21
-1e+21
-1e+21
