# vtk DataFile Version 3.0
Vela TCAD output
ASCII
DATASET UNSTRUCTURED_GRID
POINTS 15 double
0 0 0.0
4e-07 0 0.0
8e-07 0 0.0
0 2e-07 0.0
4e-07 2e-07 0.0
8e-07 2e-07 0.0
0 4e-07 0.0
4e-07 4e-07 0.0
8e-07 4e-07 0.0
0 7e-07 0.0
4e-07 7e-07 0.0
8e-07 7e-07 0.0
0 1e-06 0.0
4e-07 1e-06 0.0
8e-07 1e-06 0.0
CELLS 16 64
3 0 1 4
3 0 4 3
3 1 2 5
3 1 5 4
3 3 4 7
3 3 7 6
3 4 5 8
3 4 8 7
3 6 7 10
3 6 10 9
3 7 8 11
3 7 11 10
3 9 10 13
3 9 13 12
3 10 11 14
3 10 14 13
CELL_TYPES 16
5
5
5
5
5
5
5
5
5
5
5
5
5
5
5
5
CELL_DATA 16
SCALARS region_id int 1
LOOKUP_TABLE default
POINT_DATA 15
SCALARS Potential double 1
LOOKUP_TABLE default
-0.339239
-0.339239
-0.339239
-0.279419
-0.293283
-0.294098
-0.222612
-0.210034
-0.138308
-0.279713
-0.261794
0
-0.297632
-0.297632
-0.297632
SCALARS ElectronQuasiFermi double 1
LOOKUP_TABLE default
0
0
0
1.97907e-09
1.53337e-09
6.08415e-10
1.91968e-09
1.31466e-09
3.17819e-10
0
0
0
0
0
0
SCALARS HoleQuasiFermi double 1
LOOKUP_TABLE default
0
0
0
0
0
0
0
0
0
0
0
0
0
0
0
SCALARS Electrons double 1
LOOKUP_TABLE default
2e+10
2e+10
2e+10
2.02289e+11
1.18323e+11
1.14648e+11
1.82091e+12
2.96202e+12
4.74818e+13
2e+11
4e+11
1e+16
1e+11
1e+11
1e+11
SCALARS Holes double 1
LOOKUP_TABLE default
5e+21
5e+21
5e+21
4.94342e+20
8.45141e+20
8.72234e+20
5.49176e+19
3.37607e+19
2.10607e+18
5e+20
2.5e+20
1e+16
1e+21
1e+21
1e+21
SCALARS NetDoping double 1
LOOKUP_TABLE default
-5e+21
-5e+21
-5e+21
-3.33333e+20
-1.5e+21
-2.66667e+21
1e+21
1.25e+21
1.5e+21
-5e+20
-2.5e+20
0
-1e+21
-1e+21
-1e+21
