# vtk DataFile Version 3.0
Vela TCAD output
ASCII
DATASET UNSTRUCTURED_GRID
POINTS 15 double
0 0 0.0
4e-07 0 0.0
8e-07 0 0.0
0 2e-07 0.0
4e-07 2e-07 0.0
8e-07 2e-07 0.0
0 4e-07 0.0
4e-07 4e-07 0.0
8e-07 4e-07 0.0
0 7e-07 0.0
4e-07 7e-07 0.0
8e-07 7e-07 0.0
0 1e-06 0.0
4e-07 1e-06 0.0
8e-07 1e-06 0.0
CELLS 16 64
3 0 1 4
3 0 4 3
3 1 2 5
3 1 5 4
3 3 4 7
3 3 7 6
3 4 5 8
3 4 8 7
3 6 7 10
3 6 10 9
3 7 8 11
3 7 11 10
3 9 10 13
3 9 13 12
3 10 11 14
3 10 14 13
CELL_TYPES 16
5
5
5
5
5
5
5
5
5
5
5
5
5
5
5
5
CELL_DATA 16
SCALARS region_id int 1
LOOKUP_TABLE default
POINT_DATA 15
SCALARS potential_V double 1
LOOKUP_TABLE default
1
1
1
0.721319
0.689237
0.656821
0.479302
0.471352
0.462405
0
0
0
0
0
0
SCALARS net_doping_m3 double 1
LOOKUP_TABLE default
-5e+21
-5e+21
-5e+21
-3.33333e+20
-1.5e+21
-2.66667e+21
1e+21
1.25e+21
1.5e+21
-5e+20
-2.5e+20
0
-1e+21
-1e+21
-1e+21
