# vtk DataFile Version 3.0
Vela TCAD output
ASCII
DATASET UNSTRUCTURED_GRID
POINTS 20 double
0 0 0.0
2e-07 0 0.0
5e-07 0 0.0
8e-07 0 0.0
1.2e-06 0 0.0
0 1.5e-07 0.0
2e-07 1.5e-07 0.0
5e-07 1.5e-07 0.0
8e-07 1.5e-07 0.0
1.2e-06 1.5e-07 0.0
0 3e-07 0.0
2e-07 3e-07 0.0
5e-07 3e-07 0.0
8e-07 3e-07 0.0
1.2e-06 3e-07 0.0
0 4e-07 0.0
2e-07 4e-07 0.0
5e-07 4e-07 0.0
8e-07 4e-07 0.0
1.2e-06 4e-07 0.0
CELLS 24 96
3 0 1 6
3 0 6 5
3 1 2 7
3 1 7 6
3 2 3 8
3 2 8 7
3 3 4 9
3 3 9 8
3 5 6 11
3 5 11 10
3 6 7 12
3 6 12 11
3 7 8 13
3 7 13 12
3 8 9 14
3 8 14 13
3 10 11 16
3 10 16 15
3 11 12 17
3 11 17 16
3 12 13 18
3 12 18 17
3 13 14 19
3 13 19 18
CELL_TYPES 24
5
5
5
5
5
5
5
5
5
5
5
5
5
5
5
5
5
5
5
5
5
5
5
5
CELL_DATA 24
SCALARS region_id int 1
LOOKUP_TABLE default
POINT_DATA 20
SCALARS potential_V double 1
LOOKUP_TABLE default
0
0
0
0
0
0.260645
0.199296
0.0801065
0.194094
1
0.242325
0.25015
0.136717
0.265695
1
0
0.2
0.2
0.296328
0.973164
SCALARS net_doping_m3 double 1
LOOKUP_TABLE default
1e+22
2.66667e+21
-1e+21
1e+21
2e+21
1e+22
4.5e+21
-1e+21
5e+20
2e+21
3.33333e+21
3.16667e+21
-5e+20
0
1.33333e+21
0
0
0
0
0
