DF-ISE text

Info {
  version = 1.1
  type    = grid
  dimension   = 2
  nb_vertices = 1943
  nb_edges    = 5622
  nb_faces    = 0
  nb_elements = 3712
  nb_regions  = 3
  regions     = [ "R.Si" "Cathode" "Anode" ]
  materials   = [ Silicon Contact Contact ]
}

Data {

  CoordSystem {
    translate = [  0.000000000000000e+00 0.000000000000000e+00 0.000000000000000e+00 ]
    transform = [  1.000000000000000e+00 0.000000000000000e+00 0.000000000000000e+00
 0.000000000000000e+00 1.000000000000000e+00 0.000000000000000e+00
 0.000000000000000e+00 0.000000000000000e+00 1.000000000000000e+00
 ]
  }

  Vertices (1943) {
 3.125000000000000e-02 3.125000000000000e-02
 3.125000000000000e-02 -0.000000000000000e+00
 -0.000000000000000e+00 3.125000000000000e-02
 3.125000000000000e-02 6.250000000000000e-02
 -0.000000000000000e+00 6.250000000000000e-02
 6.250000000000000e-02 3.125000000000000e-02
 6.250000000000000e-02 -0.000000000000000e+00
 6.250000000000000e-02 6.250000000000000e-02
 3.125000000000000e-02 9.375000000000000e-02
 -0.000000000000000e+00 9.375000000000000e-02
 3.125000000000000e-02 1.250000000000000e-01
 -0.000000000000000e+00 1.250000000000000e-01
 6.250000000000000e-02 9.375000000000000e-02
 6.250000000000000e-02 1.250000000000000e-01
 9.375000000000000e-02 3.125000000000000e-02
 9.375000000000000e-02 -0.000000000000000e+00
 9.375000000000000e-02 6.250000000000000e-02
 1.250000000000000e-01 3.125000000000000e-02
 1.250000000000000e-01 -0.000000000000000e+00
 1.250000000000000e-01 6.250000000000000e-02
 9.375000000000000e-02 9.375000000000000e-02
 9.375000000000000e-02 1.250000000000000e-01
 1.250000000000000e-01 9.375000000000000e-02
 1.250000000000000e-01 1.250000000000000e-01
 3.125000000000000e-02 1.562500000000000e-01
 -0.000000000000000e+00 1.562500000000000e-01
 3.125000000000000e-02 1.875000000000000e-01
 -0.000000000000000e+00 1.875000000000000e-01
 6.250000000000000e-02 1.562500000000000e-01
 6.250000000000000e-02 1.875000000000000e-01
 3.125000000000000e-02 2.187500000000000e-01
 -0.000000000000000e+00 2.187500000000000e-01
 3.125000000000000e-02 2.500000000000000e-01
 -0.000000000000000e+00 2.500000000000000e-01
 6.250000000000000e-02 2.187500000000000e-01
 6.250000000000000e-02 2.500000000000000e-01
 9.375000000000000e-02 1.562500000000000e-01
 9.375000000000000e-02 1.875000000000000e-01
 1.250000000000000e-01 1.562500000000000e-01
 1.250000000000000e-01 1.875000000000000e-01
 9.375000000000000e-02 2.187500000000000e-01
 9.375000000000000e-02 2.500000000000000e-01
 1.250000000000000e-01 2.187500000000000e-01
 1.250000000000000e-01 2.500000000000000e-01
 1.562500000000000e-01 3.125000000000000e-02
 1.562500000000000e-01 -0.000000000000000e+00
 1.562500000000000e-01 6.250000000000000e-02
 1.875000000000000e-01 3.125000000000000e-02
 1.875000000000000e-01 -0.000000000000000e+00
 1.875000000000000e-01 6.250000000000000e-02
 1.562500000000000e-01 9.375000000000000e-02
 1.562500000000000e-01 1.250000000000000e-01
 1.875000000000000e-01 9.375000000000000e-02
 1.875000000000000e-01 1.250000000000000e-01
 2.187500000000000e-01 3.125000000000000e-02
 2.187500000000000e-01 -0.000000000000000e+00
 2.187500000000000e-01 6.250000000000000e-02
 2.500000000000000e-01 3.125000000000000e-02
 2.500000000000000e-01 -0.000000000000000e+00
 2.500000000000000e-01 6.250000000000000e-02
 2.187500000000000e-01 9.375000000000000e-02
 2.187500000000000e-01 1.250000000000000e-01
 2.500000000000000e-01 9.375000000000000e-02
 2.500000000000000e-01 1.250000000000000e-01
 1.562500000000000e-01 1.562500000000000e-01
 1.562500000000000e-01 1.875000000000000e-01
 1.875000000000000e-01 1.562500000000000e-01
 1.875000000000000e-01 1.875000000000000e-01
 1.562500000000000e-01 2.187500000000000e-01
 1.562500000000000e-01 2.500000000000000e-01
 1.875000000000000e-01 2.187500000000000e-01
 1.875000000000000e-01 2.500000000000000e-01
 2.187500000000000e-01 1.562500000000000e-01
 2.187500000000000e-01 1.875000000000000e-01
 2.500000000000000e-01 1.562500000000000e-01
 2.500000000000000e-01 1.875000000000000e-01
 2.187500000000000e-01 2.187500000000000e-01
 2.187500000000000e-01 2.500000000000000e-01
 2.500000000000000e-01 2.187500000000000e-01
 2.500000000000000e-01 2.500000000000000e-01
 2.812500000000000e-01 3.125000000000000e-02
 2.812500000000000e-01 -0.000000000000000e+00
 2.812500000000000e-01 6.250000000000000e-02
 3.125000000000000e-01 3.125000000000000e-02
 3.125000000000000e-01 -0.000000000000000e+00
 3.125000000000000e-01 6.250000000000000e-02
 2.812500000000000e-01 9.375000000000000e-02
 2.812500000000000e-01 1.250000000000000e-01
 3.125000000000000e-01 9.375000000000000e-02
 3.125000000000000e-01 1.250000000000000e-01
 3.437500000000000e-01 3.125000000000000e-02
 3.437500000000000e-01 -0.000000000000000e+00
 3.437500000000000e-01 6.250000000000000e-02
 3.750000000000000e-01 3.125000000000000e-02
 3.750000000000000e-01 -0.000000000000000e+00
 3.750000000000000e-01 6.250000000000000e-02
 3.437500000000000e-01 9.375000000000000e-02
 3.437500000000000e-01 1.250000000000000e-01
 3.750000000000000e-01 9.375000000000000e-02
 3.750000000000000e-01 1.250000000000000e-01
 2.812500000000000e-01 1.562500000000000e-01
 2.812500000000000e-01 1.875000000000000e-01
 3.125000000000000e-01 1.562500000000000e-01
 3.125000000000000e-01 1.875000000000000e-01
 2.812500000000000e-01 2.187500000000000e-01
 2.812500000000000e-01 2.500000000000000e-01
 3.125000000000000e-01 2.187500000000000e-01
 3.125000000000000e-01 2.500000000000000e-01
 3.437500000000000e-01 1.562500000000000e-01
 3.437500000000000e-01 1.875000000000000e-01
 3.750000000000000e-01 1.562500000000000e-01
 3.750000000000000e-01 1.875000000000000e-01
 3.437500000000000e-01 2.187500000000000e-01
 3.437500000000000e-01 2.500000000000000e-01
 3.750000000000000e-01 2.187500000000000e-01
 3.750000000000000e-01 2.500000000000000e-01
 4.062500000000000e-01 3.125000000000000e-02
 4.062500000000000e-01 -0.000000000000000e+00
 4.062500000000000e-01 6.250000000000000e-02
 4.375000000000000e-01 3.125000000000000e-02
 4.375000000000000e-01 -0.000000000000000e+00
 4.375000000000000e-01 6.250000000000000e-02
 4.062500000000000e-01 9.375000000000000e-02
 4.062500000000000e-01 1.250000000000000e-01
 4.375000000000000e-01 9.375000000000000e-02
 4.375000000000000e-01 1.250000000000000e-01
 4.687500000000000e-01 3.125000000000000e-02
 4.687500000000000e-01 -0.000000000000000e+00
 4.687500000000000e-01 6.250000000000000e-02
 5.000000000000000e-01 3.125000000000000e-02
 5.000000000000000e-01 -0.000000000000000e+00
 5.000000000000000e-01 6.250000000000000e-02
 4.687500000000000e-01 9.375000000000000e-02
 4.687500000000000e-01 1.250000000000000e-01
 5.000000000000000e-01 9.375000000000000e-02
 5.000000000000000e-01 1.250000000000000e-01
 4.062500000000000e-01 1.562500000000000e-01
 4.062500000000000e-01 1.875000000000000e-01
 4.375000000000000e-01 1.562500000000000e-01
 4.375000000000000e-01 1.875000000000000e-01
 4.062500000000000e-01 2.187500000000000e-01
 4.062500000000000e-01 2.500000000000000e-01
 4.375000000000000e-01 2.187500000000000e-01
 4.375000000000000e-01 2.500000000000000e-01
 4.687500000000000e-01 1.562500000000000e-01
 4.687500000000000e-01 1.875000000000000e-01
 5.000000000000000e-01 1.562500000000000e-01
 5.000000000000000e-01 1.875000000000000e-01
 4.687500000000000e-01 2.187500000000000e-01
 4.687500000000000e-01 2.500000000000000e-01
 5.000000000000000e-01 2.187500000000000e-01
 5.000000000000000e-01 2.500000000000000e-01
 5.312500000000000e-01 3.125000000000000e-02
 5.312500000000000e-01 -0.000000000000000e+00
 5.312500000000000e-01 6.250000000000000e-02
 5.625000000000000e-01 3.125000000000000e-02
 5.625000000000000e-01 -0.000000000000000e+00
 5.625000000000000e-01 6.250000000000000e-02
 5.312500000000000e-01 9.375000000000000e-02
 5.312500000000000e-01 1.250000000000000e-01
 5.625000000000000e-01 9.375000000000000e-02
 5.625000000000000e-01 1.250000000000000e-01
 5.937500000000000e-01 3.125000000000000e-02
 5.937500000000000e-01 -0.000000000000000e+00
 5.937500000000000e-01 6.250000000000000e-02
 6.250000000000000e-01 3.125000000000000e-02
 6.250000000000000e-01 -0.000000000000000e+00
 6.250000000000000e-01 6.250000000000000e-02
 5.937500000000000e-01 9.375000000000000e-02
 5.937500000000000e-01 1.250000000000000e-01
 6.250000000000000e-01 9.375000000000000e-02
 6.250000000000000e-01 1.250000000000000e-01
 5.312500000000000e-01 1.562500000000000e-01
 5.312500000000000e-01 1.875000000000000e-01
 5.625000000000000e-01 1.562500000000000e-01
 5.625000000000000e-01 1.875000000000000e-01
 5.312500000000000e-01 2.187500000000000e-01
 5.312500000000000e-01 2.500000000000000e-01
 5.625000000000000e-01 2.187500000000000e-01
 5.625000000000000e-01 2.500000000000000e-01
 5.937500000000000e-01 1.562500000000000e-01
 5.937500000000000e-01 1.875000000000000e-01
 6.250000000000000e-01 1.562500000000000e-01
 6.250000000000000e-01 1.875000000000000e-01
 5.937500000000000e-01 2.187500000000000e-01
 5.937500000000000e-01 2.500000000000000e-01
 6.250000000000000e-01 2.187500000000000e-01
 6.250000000000000e-01 2.500000000000000e-01
 6.562500000000000e-01 3.125000000000000e-02
 6.562500000000000e-01 -0.000000000000000e+00
 6.562500000000000e-01 6.250000000000000e-02
 6.875000000000000e-01 3.125000000000000e-02
 6.875000000000000e-01 -0.000000000000000e+00
 6.875000000000000e-01 6.250000000000000e-02
 6.562500000000000e-01 9.375000000000000e-02
 6.562500000000000e-01 1.250000000000000e-01
 6.875000000000000e-01 9.375000000000000e-02
 6.875000000000000e-01 1.250000000000000e-01
 7.187500000000000e-01 3.125000000000000e-02
 7.187500000000000e-01 -0.000000000000000e+00
 7.187500000000000e-01 6.250000000000000e-02
 7.500000000000000e-01 3.125000000000000e-02
 7.500000000000000e-01 -0.000000000000000e+00
 7.500000000000000e-01 6.250000000000000e-02
 7.187500000000000e-01 9.375000000000000e-02
 7.187500000000000e-01 1.250000000000000e-01
 7.500000000000000e-01 9.375000000000000e-02
 7.500000000000000e-01 1.250000000000000e-01
 6.562500000000000e-01 1.562500000000000e-01
 6.562500000000000e-01 1.875000000000000e-01
 6.875000000000000e-01 1.562500000000000e-01
 6.875000000000000e-01 1.875000000000000e-01
 6.562500000000000e-01 2.187500000000000e-01
 6.562500000000000e-01 2.500000000000000e-01
 6.875000000000000e-01 2.187500000000000e-01
 6.875000000000000e-01 2.500000000000000e-01
 7.187500000000000e-01 1.562500000000000e-01
 7.187500000000000e-01 1.875000000000000e-01
 7.500000000000000e-01 1.562500000000000e-01
 7.500000000000000e-01 1.875000000000000e-01
 7.187500000000000e-01 2.187500000000000e-01
 7.187500000000000e-01 2.500000000000000e-01
 7.500000000000000e-01 2.187500000000000e-01
 7.500000000000000e-01 2.500000000000000e-01
 7.812500000000000e-01 3.125000000000000e-02
 7.812500000000000e-01 -0.000000000000000e+00
 7.812500000000000e-01 6.250000000000000e-02
 8.125000000000000e-01 3.125000000000000e-02
 8.125000000000000e-01 -0.000000000000000e+00
 8.125000000000000e-01 6.250000000000000e-02
 7.812500000000000e-01 9.375000000000000e-02
 7.812500000000000e-01 1.250000000000000e-01
 8.125000000000000e-01 9.375000000000000e-02
 8.125000000000000e-01 1.250000000000000e-01
 8.437500000000000e-01 3.125000000000000e-02
 8.437500000000000e-01 -0.000000000000000e+00
 8.437500000000000e-01 6.250000000000000e-02
 8.750000000000000e-01 3.125000000000000e-02
 8.750000000000000e-01 -0.000000000000000e+00
 8.750000000000000e-01 6.250000000000000e-02
 8.437500000000000e-01 9.375000000000000e-02
 8.437500000000000e-01 1.250000000000000e-01
 8.750000000000000e-01 9.375000000000000e-02
 8.750000000000000e-01 1.250000000000000e-01
 7.812500000000000e-01 1.562500000000000e-01
 7.812500000000000e-01 1.875000000000000e-01
 8.125000000000000e-01 1.562500000000000e-01
 8.125000000000000e-01 1.875000000000000e-01
 7.812500000000000e-01 2.187500000000000e-01
 7.812500000000000e-01 2.500000000000000e-01
 8.125000000000000e-01 2.187500000000000e-01
 8.125000000000000e-01 2.500000000000000e-01
 8.437500000000000e-01 1.562500000000000e-01
 8.437500000000000e-01 1.875000000000000e-01
 8.750000000000000e-01 1.562500000000000e-01
 8.750000000000000e-01 1.875000000000000e-01
 8.437500000000000e-01 2.187500000000000e-01
 8.437500000000000e-01 2.500000000000000e-01
 8.750000000000000e-01 2.187500000000000e-01
 8.750000000000000e-01 2.500000000000000e-01
 8.906250000000000e-01 1.562500000000000e-02
 8.906250000000000e-01 -0.000000000000000e+00
 8.906250000000000e-01 3.125000000000000e-02
 8.984375000000000e-01 1.562500000000000e-02
 8.984375000000000e-01 -0.000000000000000e+00
 9.062500000000000e-01 1.562500000000000e-02
 9.062500000000000e-01 -0.000000000000000e+00
 8.984375000000000e-01 3.125000000000000e-02
 9.062500000000000e-01 3.125000000000000e-02
 8.906250000000000e-01 4.687500000000000e-02
 8.906250000000000e-01 6.250000000000000e-02
 8.984375000000000e-01 4.687500000000000e-02
 9.062500000000000e-01 4.687500000000000e-02
 8.984375000000000e-01 6.250000000000000e-02
 9.062500000000000e-01 6.250000000000000e-02
 9.140625000000000e-01 1.562500000000000e-02
 9.140625000000000e-01 -0.000000000000000e+00
 9.218750000000000e-01 1.562500000000000e-02
 9.218750000000000e-01 -0.000000000000000e+00
 9.140625000000000e-01 3.125000000000000e-02
 9.218750000000000e-01 3.125000000000000e-02
 9.296875000000000e-01 1.562500000000000e-02
 9.296875000000000e-01 -0.000000000000000e+00
 9.375000000000000e-01 1.562500000000000e-02
 9.375000000000000e-01 -0.000000000000000e+00
 9.296875000000000e-01 3.125000000000000e-02
 9.375000000000000e-01 3.125000000000000e-02
 9.140625000000000e-01 4.687500000000000e-02
 9.218750000000000e-01 4.687500000000000e-02
 9.140625000000000e-01 6.250000000000000e-02
 9.218750000000000e-01 6.250000000000000e-02
 9.296875000000000e-01 4.687500000000000e-02
 9.375000000000000e-01 4.687500000000000e-02
 9.296875000000000e-01 6.250000000000000e-02
 9.375000000000000e-01 6.250000000000000e-02
 8.906250000000000e-01 7.812500000000000e-02
 8.906250000000000e-01 9.375000000000000e-02
 8.984375000000000e-01 7.812500000000000e-02
 9.062500000000000e-01 7.812500000000000e-02
 8.984375000000000e-01 9.375000000000000e-02
 9.062500000000000e-01 9.375000000000000e-02
 8.906250000000000e-01 1.093750000000000e-01
 8.906250000000000e-01 1.250000000000000e-01
 8.984375000000000e-01 1.093750000000000e-01
 9.062500000000000e-01 1.093750000000000e-01
 8.984375000000000e-01 1.250000000000000e-01
 9.062500000000000e-01 1.250000000000000e-01
 9.140625000000000e-01 7.812500000000000e-02
 9.218750000000000e-01 7.812500000000000e-02
 9.140625000000000e-01 9.375000000000000e-02
 9.218750000000000e-01 9.375000000000000e-02
 9.296875000000000e-01 7.812500000000000e-02
 9.375000000000000e-01 7.812500000000000e-02
 9.296875000000000e-01 9.375000000000000e-02
 9.375000000000000e-01 9.375000000000000e-02
 9.140625000000000e-01 1.093750000000000e-01
 9.218750000000000e-01 1.093750000000000e-01
 9.140625000000000e-01 1.250000000000000e-01
 9.218750000000000e-01 1.250000000000000e-01
 9.296875000000000e-01 1.093750000000000e-01
 9.375000000000000e-01 1.093750000000000e-01
 9.296875000000000e-01 1.250000000000000e-01
 9.375000000000000e-01 1.250000000000000e-01
 9.453125000000000e-01 1.562500000000000e-02
 9.453125000000000e-01 -0.000000000000000e+00
 9.531250000000000e-01 1.562500000000000e-02
 9.531250000000000e-01 -0.000000000000000e+00
 9.453125000000000e-01 3.125000000000000e-02
 9.531250000000000e-01 3.125000000000000e-02
 9.609375000000000e-01 1.562500000000000e-02
 9.609375000000000e-01 -0.000000000000000e+00
 9.687500000000000e-01 1.562500000000000e-02
 9.687500000000000e-01 -0.000000000000000e+00
 9.609375000000000e-01 3.125000000000000e-02
 9.687500000000000e-01 3.125000000000000e-02
 9.453125000000000e-01 4.687500000000000e-02
 9.531250000000000e-01 4.687500000000000e-02
 9.453125000000000e-01 6.250000000000000e-02
 9.531250000000000e-01 6.250000000000000e-02
 9.609375000000000e-01 4.687500000000000e-02
 9.687500000000000e-01 4.687500000000000e-02
 9.609375000000000e-01 6.250000000000000e-02
 9.687500000000000e-01 6.250000000000000e-02
 9.765625000000000e-01 1.562500000000000e-02
 9.765625000000000e-01 -0.000000000000000e+00
 9.843750000000000e-01 1.562500000000000e-02
 9.843750000000000e-01 -0.000000000000000e+00
 9.765625000000000e-01 3.125000000000000e-02
 9.843750000000000e-01 3.125000000000000e-02
 9.921875000000000e-01 1.562500000000000e-02
 9.921875000000000e-01 -0.000000000000000e+00
 1.000000000000000e+00 1.562500000000000e-02
 1.000000000000000e+00 -0.000000000000000e+00
 9.921875000000000e-01 3.125000000000000e-02
 1.000000000000000e+00 3.125000000000000e-02
 9.765625000000000e-01 4.687500000000000e-02
 9.843750000000000e-01 4.687500000000000e-02
 9.765625000000000e-01 6.250000000000000e-02
 9.843750000000000e-01 6.250000000000000e-02
 9.921875000000000e-01 4.687500000000000e-02
 1.000000000000000e+00 4.687500000000000e-02
 9.921875000000000e-01 6.250000000000000e-02
 1.000000000000000e+00 6.250000000000000e-02
 9.453125000000000e-01 7.812500000000000e-02
 9.531250000000000e-01 7.812500000000000e-02
 9.453125000000000e-01 9.375000000000000e-02
 9.531250000000000e-01 9.375000000000000e-02
 9.609375000000000e-01 7.812500000000000e-02
 9.687500000000000e-01 7.812500000000000e-02
 9.609375000000000e-01 9.375000000000000e-02
 9.687500000000000e-01 9.375000000000000e-02
 9.453125000000000e-01 1.093750000000000e-01
 9.531250000000000e-01 1.093750000000000e-01
 9.453125000000000e-01 1.250000000000000e-01
 9.531250000000000e-01 1.250000000000000e-01
 9.609375000000000e-01 1.093750000000000e-01
 9.687500000000000e-01 1.093750000000000e-01
 9.609375000000000e-01 1.250000000000000e-01
 9.687500000000000e-01 1.250000000000000e-01
 9.765625000000000e-01 7.812500000000000e-02
 9.843750000000000e-01 7.812500000000000e-02
 9.765625000000000e-01 9.375000000000000e-02
 9.843750000000000e-01 9.375000000000000e-02
 9.921875000000000e-01 7.812500000000000e-02
 1.000000000000000e+00 7.812500000000000e-02
 9.921875000000000e-01 9.375000000000000e-02
 1.000000000000000e+00 9.375000000000000e-02
 9.765625000000000e-01 1.093750000000000e-01
 9.843750000000000e-01 1.093750000000000e-01
 9.765625000000000e-01 1.250000000000000e-01
 9.843750000000000e-01 1.250000000000000e-01
 9.921875000000000e-01 1.093750000000000e-01
 1.000000000000000e+00 1.093750000000000e-01
 9.921875000000000e-01 1.250000000000000e-01
 1.000000000000000e+00 1.250000000000000e-01
 8.906250000000000e-01 1.406250000000000e-01
 8.906250000000000e-01 1.562500000000000e-01
 8.984375000000000e-01 1.406250000000000e-01
 9.062500000000000e-01 1.406250000000000e-01
 8.984375000000000e-01 1.562500000000000e-01
 9.062500000000000e-01 1.562500000000000e-01
 8.906250000000000e-01 1.718750000000000e-01
 8.906250000000000e-01 1.875000000000000e-01
 8.984375000000000e-01 1.718750000000000e-01
 9.062500000000000e-01 1.718750000000000e-01
 8.984375000000000e-01 1.875000000000000e-01
 9.062500000000000e-01 1.875000000000000e-01
 9.140625000000000e-01 1.406250000000000e-01
 9.218750000000000e-01 1.406250000000000e-01
 9.140625000000000e-01 1.562500000000000e-01
 9.218750000000000e-01 1.562500000000000e-01
 9.296875000000000e-01 1.406250000000000e-01
 9.375000000000000e-01 1.406250000000000e-01
 9.296875000000000e-01 1.562500000000000e-01
 9.375000000000000e-01 1.562500000000000e-01
 9.140625000000000e-01 1.718750000000000e-01
 9.218750000000000e-01 1.718750000000000e-01
 9.140625000000000e-01 1.875000000000000e-01
 9.218750000000000e-01 1.875000000000000e-01
 9.296875000000000e-01 1.718750000000000e-01
 9.375000000000000e-01 1.718750000000000e-01
 9.296875000000000e-01 1.875000000000000e-01
 9.375000000000000e-01 1.875000000000000e-01
 8.906250000000000e-01 2.031250000000000e-01
 8.906250000000000e-01 2.187500000000000e-01
 8.984375000000000e-01 2.031250000000000e-01
 9.062500000000000e-01 2.031250000000000e-01
 8.984375000000000e-01 2.187500000000000e-01
 9.062500000000000e-01 2.187500000000000e-01
 8.906250000000000e-01 2.343750000000000e-01
 8.906250000000000e-01 2.500000000000000e-01
 8.984375000000000e-01 2.343750000000000e-01
 9.062500000000000e-01 2.343750000000000e-01
 8.984375000000000e-01 2.500000000000000e-01
 9.062500000000000e-01 2.500000000000000e-01
 9.140625000000000e-01 2.031250000000000e-01
 9.218750000000000e-01 2.031250000000000e-01
 9.140625000000000e-01 2.187500000000000e-01
 9.218750000000000e-01 2.187500000000000e-01
 9.296875000000000e-01 2.031250000000000e-01
 9.375000000000000e-01 2.031250000000000e-01
 9.296875000000000e-01 2.187500000000000e-01
 9.375000000000000e-01 2.187500000000000e-01
 9.140625000000000e-01 2.343750000000000e-01
 9.218750000000000e-01 2.343750000000000e-01
 9.140625000000000e-01 2.500000000000000e-01
 9.218750000000000e-01 2.500000000000000e-01
 9.296875000000000e-01 2.343750000000000e-01
 9.375000000000000e-01 2.343750000000000e-01
 9.296875000000000e-01 2.500000000000000e-01
 9.375000000000000e-01 2.500000000000000e-01
 9.453125000000000e-01 1.406250000000000e-01
 9.531250000000000e-01 1.406250000000000e-01
 9.453125000000000e-01 1.562500000000000e-01
 9.531250000000000e-01 1.562500000000000e-01
 9.609375000000000e-01 1.406250000000000e-01
 9.687500000000000e-01 1.406250000000000e-01
 9.609375000000000e-01 1.562500000000000e-01
 9.687500000000000e-01 1.562500000000000e-01
 9.453125000000000e-01 1.718750000000000e-01
 9.531250000000000e-01 1.718750000000000e-01
 9.453125000000000e-01 1.875000000000000e-01
 9.531250000000000e-01 1.875000000000000e-01
 9.609375000000000e-01 1.718750000000000e-01
 9.687500000000000e-01 1.718750000000000e-01
 9.609375000000000e-01 1.875000000000000e-01
 9.687500000000000e-01 1.875000000000000e-01
 9.765625000000000e-01 1.406250000000000e-01
 9.843750000000000e-01 1.406250000000000e-01
 9.765625000000000e-01 1.562500000000000e-01
 9.843750000000000e-01 1.562500000000000e-01
 9.921875000000000e-01 1.406250000000000e-01
 1.000000000000000e+00 1.406250000000000e-01
 9.921875000000000e-01 1.562500000000000e-01
 1.000000000000000e+00 1.562500000000000e-01
 9.765625000000000e-01 1.718750000000000e-01
 9.843750000000000e-01 1.718750000000000e-01
 9.765625000000000e-01 1.875000000000000e-01
 9.843750000000000e-01 1.875000000000000e-01
 9.921875000000000e-01 1.718750000000000e-01
 1.000000000000000e+00 1.718750000000000e-01
 9.921875000000000e-01 1.875000000000000e-01
 1.000000000000000e+00 1.875000000000000e-01
 9.453125000000000e-01 2.031250000000000e-01
 9.531250000000000e-01 2.031250000000000e-01
 9.453125000000000e-01 2.187500000000000e-01
 9.531250000000000e-01 2.187500000000000e-01
 9.609375000000000e-01 2.031250000000000e-01
 9.687500000000000e-01 2.031250000000000e-01
 9.609375000000000e-01 2.187500000000000e-01
 9.687500000000000e-01 2.187500000000000e-01
 9.453125000000000e-01 2.343750000000000e-01
 9.531250000000000e-01 2.343750000000000e-01
 9.453125000000000e-01 2.500000000000000e-01
 9.531250000000000e-01 2.500000000000000e-01
 9.609375000000000e-01 2.343750000000000e-01
 9.687500000000000e-01 2.343750000000000e-01
 9.609375000000000e-01 2.500000000000000e-01
 9.687500000000000e-01 2.500000000000000e-01
 9.765625000000000e-01 2.031250000000000e-01
 9.843750000000000e-01 2.031250000000000e-01
 9.765625000000000e-01 2.187500000000000e-01
 9.843750000000000e-01 2.187500000000000e-01
 9.921875000000000e-01 2.031250000000000e-01
 1.000000000000000e+00 2.031250000000000e-01
 9.921875000000000e-01 2.187500000000000e-01
 1.000000000000000e+00 2.187500000000000e-01
 9.765625000000000e-01 2.343750000000000e-01
 9.843750000000000e-01 2.343750000000000e-01
 9.765625000000000e-01 2.500000000000000e-01
 9.843750000000000e-01 2.500000000000000e-01
 9.921875000000000e-01 2.343750000000000e-01
 1.000000000000000e+00 2.343750000000000e-01
 9.921875000000000e-01 2.500000000000000e-01
 1.000000000000000e+00 2.500000000000000e-01
 3.125000000000000e-02 2.812500000000000e-01
 -0.000000000000000e+00 2.812500000000000e-01
 3.125000000000000e-02 3.125000000000000e-01
 -0.000000000000000e+00 3.125000000000000e-01
 6.250000000000000e-02 2.812500000000000e-01
 6.250000000000000e-02 3.125000000000000e-01
 3.125000000000000e-02 3.437500000000000e-01
 -0.000000000000000e+00 3.437500000000000e-01
 3.125000000000000e-02 3.750000000000000e-01
 -0.000000000000000e+00 3.750000000000000e-01
 6.250000000000000e-02 3.437500000000000e-01
 6.250000000000000e-02 3.750000000000000e-01
 9.375000000000000e-02 2.812500000000000e-01
 9.375000000000000e-02 3.125000000000000e-01
 1.250000000000000e-01 2.812500000000000e-01
 1.250000000000000e-01 3.125000000000000e-01
 9.375000000000000e-02 3.437500000000000e-01
 9.375000000000000e-02 3.750000000000000e-01
 1.250000000000000e-01 3.437500000000000e-01
 1.250000000000000e-01 3.750000000000000e-01
 1.562500000000000e-01 2.812500000000000e-01
 1.562500000000000e-01 3.125000000000000e-01
 1.875000000000000e-01 2.812500000000000e-01
 1.875000000000000e-01 3.125000000000000e-01
 1.562500000000000e-01 3.437500000000000e-01
 1.562500000000000e-01 3.750000000000000e-01
 1.875000000000000e-01 3.437500000000000e-01
 1.875000000000000e-01 3.750000000000000e-01
 2.187500000000000e-01 2.812500000000000e-01
 2.187500000000000e-01 3.125000000000000e-01
 2.500000000000000e-01 2.812500000000000e-01
 2.500000000000000e-01 3.125000000000000e-01
 2.187500000000000e-01 3.437500000000000e-01
 2.187500000000000e-01 3.750000000000000e-01
 2.500000000000000e-01 3.437500000000000e-01
 2.500000000000000e-01 3.750000000000000e-01
 2.812500000000000e-01 2.812500000000000e-01
 2.812500000000000e-01 3.125000000000000e-01
 3.125000000000000e-01 2.812500000000000e-01
 3.125000000000000e-01 3.125000000000000e-01
 2.812500000000000e-01 3.437500000000000e-01
 2.812500000000000e-01 3.750000000000000e-01
 3.125000000000000e-01 3.437500000000000e-01
 3.125000000000000e-01 3.750000000000000e-01
 3.437500000000000e-01 2.812500000000000e-01
 3.437500000000000e-01 3.125000000000000e-01
 3.750000000000000e-01 2.812500000000000e-01
 3.750000000000000e-01 3.125000000000000e-01
 3.437500000000000e-01 3.437500000000000e-01
 3.437500000000000e-01 3.750000000000000e-01
 3.750000000000000e-01 3.437500000000000e-01
 3.750000000000000e-01 3.750000000000000e-01
 4.062500000000000e-01 2.812500000000000e-01
 4.062500000000000e-01 3.125000000000000e-01
 4.375000000000000e-01 2.812500000000000e-01
 4.375000000000000e-01 3.125000000000000e-01
 4.062500000000000e-01 3.437500000000000e-01
 4.062500000000000e-01 3.750000000000000e-01
 4.375000000000000e-01 3.437500000000000e-01
 4.375000000000000e-01 3.750000000000000e-01
 4.687500000000000e-01 2.812500000000000e-01
 4.687500000000000e-01 3.125000000000000e-01
 5.000000000000000e-01 2.812500000000000e-01
 5.000000000000000e-01 3.125000000000000e-01
 4.687500000000000e-01 3.437500000000000e-01
 4.687500000000000e-01 3.750000000000000e-01
 5.000000000000000e-01 3.437500000000000e-01
 5.000000000000000e-01 3.750000000000000e-01
 5.312500000000000e-01 2.812500000000000e-01
 5.312500000000000e-01 3.125000000000000e-01
 5.625000000000000e-01 2.812500000000000e-01
 5.625000000000000e-01 3.125000000000000e-01
 5.312500000000000e-01 3.437500000000000e-01
 5.312500000000000e-01 3.750000000000000e-01
 5.625000000000000e-01 3.437500000000000e-01
 5.625000000000000e-01 3.750000000000000e-01
 5.937500000000000e-01 2.812500000000000e-01
 5.937500000000000e-01 3.125000000000000e-01
 6.250000000000000e-01 2.812500000000000e-01
 6.250000000000000e-01 3.125000000000000e-01
 5.937500000000000e-01 3.437500000000000e-01
 5.937500000000000e-01 3.750000000000000e-01
 6.250000000000000e-01 3.437500000000000e-01
 6.250000000000000e-01 3.750000000000000e-01
 6.562500000000000e-01 2.812500000000000e-01
 6.562500000000000e-01 3.125000000000000e-01
 6.875000000000000e-01 2.812500000000000e-01
 6.875000000000000e-01 3.125000000000000e-01
 6.562500000000000e-01 3.437500000000000e-01
 6.562500000000000e-01 3.750000000000000e-01
 6.875000000000000e-01 3.437500000000000e-01
 6.875000000000000e-01 3.750000000000000e-01
 7.187500000000000e-01 2.812500000000000e-01
 7.187500000000000e-01 3.125000000000000e-01
 7.500000000000000e-01 2.812500000000000e-01
 7.500000000000000e-01 3.125000000000000e-01
 7.187500000000000e-01 3.437500000000000e-01
 7.187500000000000e-01 3.750000000000000e-01
 7.500000000000000e-01 3.437500000000000e-01
 7.500000000000000e-01 3.750000000000000e-01
 7.812500000000000e-01 2.812500000000000e-01
 7.812500000000000e-01 3.125000000000000e-01
 8.125000000000000e-01 2.812500000000000e-01
 8.125000000000000e-01 3.125000000000000e-01
 7.812500000000000e-01 3.437500000000000e-01
 7.812500000000000e-01 3.750000000000000e-01
 8.125000000000000e-01 3.437500000000000e-01
 8.125000000000000e-01 3.750000000000000e-01
 8.437500000000000e-01 2.812500000000000e-01
 8.437500000000000e-01 3.125000000000000e-01
 8.750000000000000e-01 2.812500000000000e-01
 8.750000000000000e-01 3.125000000000000e-01
 8.437500000000000e-01 3.437500000000000e-01
 8.437500000000000e-01 3.750000000000000e-01
 8.750000000000000e-01 3.437500000000000e-01
 8.750000000000000e-01 3.750000000000000e-01
 8.906250000000000e-01 2.656250000000000e-01
 8.906250000000000e-01 2.812500000000000e-01
 8.984375000000000e-01 2.656250000000000e-01
 9.062500000000000e-01 2.656250000000000e-01
 8.984375000000000e-01 2.812500000000000e-01
 9.062500000000000e-01 2.812500000000000e-01
 8.906250000000000e-01 2.968750000000000e-01
 8.906250000000000e-01 3.125000000000000e-01
 8.984375000000000e-01 2.968750000000000e-01
 9.062500000000000e-01 2.968750000000000e-01
 8.984375000000000e-01 3.125000000000000e-01
 9.062500000000000e-01 3.125000000000000e-01
 9.140625000000000e-01 2.656250000000000e-01
 9.218750000000000e-01 2.656250000000000e-01
 9.140625000000000e-01 2.812500000000000e-01
 9.218750000000000e-01 2.812500000000000e-01
 9.296875000000000e-01 2.656250000000000e-01
 9.375000000000000e-01 2.656250000000000e-01
 9.296875000000000e-01 2.812500000000000e-01
 9.375000000000000e-01 2.812500000000000e-01