DF-ISE text

Info {
  version   = 1.0
  type      = xyplot
  datasets  = [
    "time"
    "Cathode OuterVoltage" "Cathode InnerVoltage" "Cathode QuasiFermiPotential" "Cathode DisplacementCurrent" "Cathode eCurrent"
    "Cathode hCurrent" "Cathode TotalCurrent" "Cathode Charge" "Anode OuterVoltage" "Anode InnerVoltage"
    "Anode QuasiFermiPotential" "Anode DisplacementCurrent" "Anode eCurrent" "Anode hCurrent" "Anode TotalCurrent"
    "Anode Charge" ]
  functions = [
    Time
    OuterVoltage InnerVoltage QuasiFermiPotential DisplacementCurrent eCurrent
    hCurrent TotalCurrent Charge OuterVoltage InnerVoltage
    QuasiFermiPotential DisplacementCurrent eCurrent hCurrent TotalCurrent
    Charge ]
}

Data {
      0.00000000000000E+00
      0.00000000000000E+00   0.00000000000000E+00   0.00000000000000E+00   0.00000000000000E+00  -6.74115722458708E-26
      2.93597182315862E-25   2.26185610069991E-25   5.28941943767407E-16   0.00000000000000E+00   0.00000000000000E+00
      0.00000000000000E+00   0.00000000000000E+00   6.74115645827379E-26  -2.93597174652734E-25  -2.26185610069996E-25
     -5.28941943767407E-16
      0.00000000000000E+00
      0.00000000000000E+00   0.00000000000000E+00   0.00000000000000E+00   0.00000000000000E+00  -8.30875544197565E-26
      8.00477366113444E-25   7.17389811693687E-25   5.28941933930105E-16   0.00000000000000E+00   0.00000000000000E+00
      0.00000000000000E+00   0.00000000000000E+00   8.30875493000826E-26  -8.00477360993773E-25  -7.17389811693691E-25
     -5.28941933930104E-16
      1.00000000000000E-04
      0.00000000000000E+00   0.00000000000000E+00   0.00000000000000E+00   0.00000000000000E+00   8.34825604540018E-20
      1.45024784773382E-20   9.79850389313400E-20   5.29682174277945E-16  -2.00000000000000E-03  -2.00000000000000E-03
      0.00000000000000E+00   0.00000000000000E+00  -3.30288745847343E-20  -6.49561643466063E-20  -9.79850389313406E-20
     -5.29682174277944E-16
      2.19333333333333E-04
      0.00000000000000E+00   0.00000000000000E+00   0.00000000000000E+00   0.00000000000000E+00   1.76644147786874E-19
      4.24971790378232E-20   2.19141326824697E-19   5.30564252592354E-16  -4.38666666666667E-03  -4.38666666666667E-03
      0.00000000000000E+00   0.00000000000000E+00  -6.80784302880973E-20  -1.51062896536600E-19  -2.19141326824697E-19
     -5.30564252592354E-16
      3.62533333333333E-04
      0.00000000000000E+00   0.00000000000000E+00   0.00000000000000E+00   0.00000000000000E+00   2.83769862413506E-19
      4.76292231223018E-20   3.31399085535808E-19   5.31620923693014E-16  -7.25066666666667E-03  -7.25066666666667E-03
      0.00000000000000E+00   0.00000000000000E+00  -1.08320815875989E-19  -2.23078269659819E-19  -3.31399085535808E-19
     -5.31620923693013E-16
      5.33896000000000E-04
      0.00000000000000E+00   0.00000000000000E+00   0.00000000000000E+00   0.00000000000000E+00   4.01338021232628E-19
      6.58795741992054E-20   4.67217595431834E-19   5.32882807987029E-16  -1.06779200000000E-02  -1.06779200000000E-02
      0.00000000000000E+00   0.00000000000000E+00  -1.49680093193740E-19  -3.17537502238093E-19  -4.67217595431832E-19
     -5.32882807987030E-16
      7.38959991111111E-04
      0.00000000000000E+00   0.00000000000000E+00   0.00000000000000E+00   0.00000000000000E+00   5.30114303830676E-19
      8.47497423854396E-20   6.14864046216116E-19   5.34389166580701E-16  -1.47791998222222E-02  -1.47791998222222E-02
      0.00000000000000E+00   0.00000000000000E+00  -1.92323247215043E-19  -4.22540799001072E-19  -6.14864046216115E-19
     -5.34389166580700E-16
      9.84353233807407E-04
      0.00000000000000E+00   0.00000000000000E+00   0.00000000000000E+00   0.00000000000000E+00   6.69273065990789E-19
      1.03704908931533E-19   7.72977974922322E-19   5.36186525288344E-16  -1.96870646761481E-02  -1.96870646761481E-02
      0.00000000000000E+00   0.00000000000000E+00  -2.34995315357359E-19  -5.37982659564963E-19  -7.72977974922322E-19
     -5.36186525288343E-16
      1.27800714756731E-03
      0.00000000000000E+00   0.00000000000000E+00   0.00000000000000E+00   0.00000000000000E+00   8.17530044511285E-19
      1.22096065103395E-19   9.39626109614681E-19   5.38329918002492E-16  -2.55601429513462E-02  -2.55601429513462E-02
      0.00000000000000E+00   0.00000000000000E+00  -2.76180297124845E-19  -6.63445812489834E-19  -9.39626109614680E-19
     -5.38329918002493E-16
      1.62941299769999E-03
      0.00000000000000E+00   0.00000000000000E+00   0.00000000000000E+00   0.00000000000000E+00   9.73282037269444E-19
      1.39210355113597E-19   1.11249239238304E-18   5.40884302507261E-16  -3.25882599539998E-02  -3.25882599539998E-02
      0.00000000000000E+00   0.00000000000000E+00  -3.14219749302248E-19  -7.98272643080789E-19  -1.11249239238304E-18
     -5.40884302507261E-16
      2.04992866502543E-03
      0.00000000000000E+00   0.00000000000000E+00   0.00000000000000E+00   0.00000000000000E+00   1.13491020520052E-18
      1.54353293659148E-19   1.28926349885967E-18   5.43926156663690E-16  -4.09985733005087E-02  -4.09985733005087E-02
      0.00000000000000E+00   0.00000000000000E+00  -3.47505254335457E-19  -9.41758244524210E-19  -1.28926349885967E-18
     -5.43926156663691E-16
      2.55314574692488E-03
      0.00000000000000E+00   0.00000000000000E+00   0.00000000000000E+00   0.00000000000000E+00   1.30127494645536E-18
      1.66954753868722E-19   1.46822970032408E-18   5.47545256432133E-16  -5.10629149384976E-02  -5.10629149384976E-02
      0.00000000000000E+00   0.00000000000000E+00  -3.74726267719107E-19  -1.09350343260497E-18  -1.46822970032408E-18
     -5.47545256432132E-16
      3.15532885493122E-03
      0.00000000000000E+00   0.00000000000000E+00   0.00000000000000E+00   0.00000000000000E+00   1.47238738664920E-18
      1.76677343253968E-19   1.64906472990317E-18   5.51846627806734E-16  -6.31065770986243E-02  -6.31065770986243E-02
      0.00000000000000E+00   0.00000000000000E+00  -3.95126261530226E-19  -1.25393846837294E-18  -1.64906472990317E-18
     -5.51846627806734E-16
      3.87594130751213E-03
      0.00000000000000E+00   0.00000000000000E+00   0.00000000000000E+00   0.00000000000000E+00   1.65016283928500E-18
      1.83494839971451E-19   1.83365767925645E-18   5.56952652053674E-16  -7.75188261502426E-02  -7.75188261502426E-02
      0.00000000000000E+00   0.00000000000000E+00  -4.08701252044095E-19  -1.42495642721236E-18  -1.83365767925645E-18
     -5.56952652053672E-16
      4.73827420910063E-03
      0.00000000000000E+00   0.00000000000000E+00   0.00000000000000E+00   0.00000000000000E+00   1.83903722129366E-18
      1.87710949553336E-19   2.02674817084699E-18   5.63005287649441E-16  -9.47654841820126E-02  -9.47654841820126E-02
      0.00000000000000E+00   0.00000000000000E+00  -4.16290864779821E-19  -1.61045730606717E-18  -2.02674817084699E-18
     -5.63005287649440E-16
      5.77019924800153E-03
      0.00000000000000E+00   0.00000000000000E+00   0.00000000000000E+00   0.00000000000000E+00   2.04604052889100E-18
      1.89908348480062E-19   2.23594887737107E-18   5.70168353642251E-16  -1.15403984960031E-01  -1.15403984960031E-01
      0.00000000000000E+00   0.00000000000000E+00  -4.19546562395192E-19  -1.81640231497587E-18  -2.23594887737106E-18
     -5.70168353642251E-16
      7.00506954455294E-03
      0.00000000000000E+00   0.00000000000000E+00   0.00000000000000E+00   0.00000000000000E+00   2.27961467640401E-18
      1.90838451865412E-19   2.47045312826942E-18   5.78629799471026E-16  -1.40101390891059E-01  -1.40101390891059E-01
      0.00000000000000E+00   0.00000000000000E+00  -4.20615617499762E-19  -2.04983751076965E-18  -2.47045312826941E-18
     -5.78629799471026E-16
      8.48279766609280E-03
      0.00000000000000E+00   0.00000000000000E+00   0.00000000000000E+00   0.00000000000000E+00   2.54666665917953E-18
      1.91229616005380E-19   2.73789627518491E-18   5.88603868690675E-16  -1.69655953321856E-01  -1.69655953321856E-01
      0.00000000000000E+00   0.00000000000000E+00  -4.21186197232937E-19  -2.31671007795197E-18  -2.73789627518490E-18
     -5.88603868690675E-16
      1.02511456515355E-02
      0.00000000000000E+00   0.00000000000000E+00   0.00000000000000E+00   0.00000000000000E+00   2.85071553186017E-18
      1.91533049555402E-19   3.04224858141558E-18   6.00333053561675E-16  -2.05022913030710E-01  -2.05022913030710E-01
      0.00000000000000E+00   0.00000000000000E+00  -4.21817190766066E-19  -2.62043139064951E-18  -3.04224858141558E-18
     -6.00333053561677E-16
      1.23672687407819E-02
      0.00000000000000E+00   0.00000000000000E+00   0.00000000000000E+00   0.00000000000000E+00   3.19767526463504E-18
      1.91880976843432E-19   3.38955624147847E-18   6.14089741324434E-16  -2.47345374815638E-01  -2.47345374815638E-01
      0.00000000000000E+00   0.00000000000000E+00  -4.22559934521304E-19  -2.96699630695718E-18  -3.38955624147848E-18
     -6.14089741324433E-16
      1.48995627042468E-02
      0.00000000000000E+00   0.00000000000000E+00   0.00000000000000E+00   0.00000000000000E+00   3.60590339167554E-18
      1.92286743955406E-19   3.79819013563095E-18   6.30177481252787E-16  -2.97991254084936E-01  -2.97991254084936E-01
      0.00000000000000E+00   0.00000000000000E+00  -4.23432325714753E-19  -3.37475780991618E-18  -3.79819013563093E-18
     -6.30177481252788E-16
      1.79214335006482E-02
      0.00000000000000E+00   0.00000000000000E+00   0.00000000000000E+00   0.00000000000000E+00   4.09126110712021E-18
      1.92761866023617E-19   4.28402297314382E-18   6.48880341414609E-16  -3.58428670012965E-01  -3.58428670012965E-01
      0.00000000000000E+00   0.00000000000000E+00  -4.24448766620578E-19  -3.85957420652324E-18  -4.28402297314381E-18
     -6.48880341414611E-16
      2.15275326510206E-02
      0.00000000000000E+00   0.00000000000000E+00   0.00000000000000E+00   0.00000000000000E+00   4.64230644958041E-18
      1.93314549942230E-19   4.83562099952264E-18   6.70551852971570E-16  -4.30550653020412E-01  -4.30550653020412E-01
      0.00000000000000E+00   0.00000000000000E+00  -4.25630884613826E-19  -4.40999011490880E-18  -4.83562099952263E-18
     -6.70551852971570E-16
      2.58308109704650E-02
      0.00000000000000E+00   0.00000000000000E+00   0.00000000000000E+00   0.00000000000000E+00   5.27456558414174E-18
      1.93955614785822E-19   5.46852119892756E-18   6.95576827780554E-16  -5.16616219409299E-01  -5.16616219409299E-01
      0.00000000000000E+00   0.00000000000000E+00  -4.27001561566115E-19  -5.04151963736145E-18  -5.46852119892756E-18
     -6.95576827780554E-16
      3.09660564316686E-02
      0.00000000000000E+00   0.00000000000000E+00   0.00000000000000E+00   0.00000000000000E+00   6.01671131332384E-18
      1.94697114289483E-19   6.21140842761332E-18   7.24372842554013E-16  -6.19321128633372E-01  -6.19321128633372E-01
      0.00000000000000E+00   0.00000000000000E+00  -4.28540473072435E-19  -5.78286795454088E-18  -6.21140842761331E-18
     -7.24372842554013E-16
      3.70941160153716E-02
      0.00000000000000E+00   0.00000000000000E+00   0.00000000000000E+00   0.00000000000000E+00   6.83408753532717E-18
      1.95552681039888E-19   7.02964021636706E-18   7.57393823995932E-16  -7.41882320307431E-01  -7.41882320307431E-01
      0.00000000000000E+00   0.00000000000000E+00  -4.16957639386561E-19  -6.61268257698050E-18  -7.02964021636706E-18
     -7.57393823995932E-16
      4.44069337852571E-02
      0.00000000000000E+00   0.00000000000000E+00   0.00000000000000E+00   0.00000000000000E+00   7.80308844351051E-18
      1.96256604527472E-19   7.99934504803798E-18   7.95137597944785E-16  -8.88138675705142E-01  -8.88138675705142E-01
      0.00000000000000E+00   0.00000000000000E+00  -4.24558187349826E-19  -7.57478686068815E-18  -7.99934504803797E-18
     -7.95137597944785E-16
      5.31335629906539E-02
      0.00000000000000E+00   0.00000000000000E+00   0.00000000000000E+00   0.00000000000000E+00   8.89763767934686E-18
      1.96122167945234E-19   9.09375984729210E-18   8.38158205740889E-16  -1.06267125981308E+00  -1.06267125981308E+00
      0.00000000000000E+00   0.00000000000000E+00  -4.32619974853975E-19  -8.66113987243818E-18  -9.09375984729216E-18
     -8.38158205740891E-16
      6.35473405090940E-02
      0.00000000000000E+00   0.00000000000000E+00   0.00000000000000E+00   0.00000000000000E+00   1.01221926975375E-17
      1.98493271402255E-19   1.03206859689398E-17   8.87074992410205E-16  -1.27094681018188E+00  -1.27094681018188E+00
      0.00000000000000E+00   0.00000000000000E+00  -4.37801854502970E-19  -9.88288411443687E-18  -1.03206859689398E-17
     -8.87074992410204E-16
      7.59744483477659E-02
      0.00000000000000E+00   0.00000000000000E+00   0.00000000000000E+00   0.00000000000000E+00   1.03991149657308E-17
     -2.25020287618749E-19   1.01740946781120E-17   9.42544478242874E-16  -1.51948896695532E+00  -1.51948896695532E+00
      0.00000000000000E+00   0.00000000000000E+00   6.61346995089190E-19  -1.08354416732012E-17  -1.01740946781120E-17
     -9.42544478242873E-16
      9.08041303685810E-02
      0.00000000000000E+00   0.00000000000000E+00   0.00000000000000E+00   0.00000000000000E+00   1.29087946510610E-17
     -5.69963720651370E-19   1.23388309304096E-17   1.00514550883805E-15  -1.81608260737162E+00  -1.81608260737162E+00
      0.00000000000000E+00   0.00000000000000E+00  -3.03865466375860E-19  -1.20349654640338E-17  -1.23388309304096E-17
     -1.00514550883805E-15
      1.08500884246754E-01
      0.00000000000000E+00   0.00000000000000E+00   0.00000000000000E+00   0.00000000000000E+00   1.47873159758759E-17
      2.02745149709243E-19   1.49900611255852E-17   1.07522956239362E-15  -2.17001768493507E+00  -2.17001768493507E+00
      0.00000000000000E+00   0.00000000000000E+00  -4.50166954124741E-19  -1.45398941714604E-17  -1.49900611255851E-17
     -1.07522956239362E-15
      1.29560021361779E-01
      0.00000000000000E+00   0.00000000000000E+00   0.00000000000000E+00   0.00000000000000E+00   1.67632518313228E-17
      2.07204813347030E-19   1.69704566446698E-17   1.15242841329942E-15  -2.59120042723558E+00  -2.59120042723558E+00
      0.00000000000000E+00   0.00000000000000E+00  -4.55735341829351E-19  -1.65147213028406E-17  -1.69704566446699E-17
     -1.15242841329941E-15
      1.54620394528660E-01
      0.00000000000000E+00   0.00000000000000E+00   0.00000000000000E+00   0.00000000000000E+00   1.90686525662645E-17
      2.09338875973415E-19   1.92779914422379E-17   1.23627999401658E-15  -3.09240789057319E+00  -3.09240789057319E+00
      0.00000000000000E+00   0.00000000000000E+00  -4.61495500970125E-19  -1.88164959412678E-17  -1.92779914422379E-17
     -1.23627999401658E-15
      1.84442238597247E-01
      0.00000000000000E+00   0.00000000000000E+00   0.00000000000000E+00   0.00000000000000E+00   2.16897541201801E-17
     -1.92650063664823E-21   2.16878276195434E-17   1.32980297029884E-15  -3.68884477194495E+00  -3.68884477194495E+00
      0.00000000000000E+00   0.00000000000000E+00  -4.62259248908860E-19  -2.12255683706347E-17  -2.16878276195435E-17
     -1.32980297029884E-15
      2.19930233038867E-01
      0.00000000000000E+00   0.00000000000000E+00   0.00000000000000E+00   0.00000000000000E+00   2.53665388465209E-17
      2.15926800002660E-19   2.55824656465235E-17   1.43461151033166E-15  -4.39860466077733E+00  -4.39860466077733E+00
      0.00000000000000E+00   0.00000000000000E+00  -4.74925135625180E-19  -2.51075405108982E-17  -2.55824656465234E-17
     -1.43461151033166E-15
      2.62160946424394E-01
      0.00000000000000E+00   0.00000000000000E+00   0.00000000000000E+00   0.00000000000000E+00   2.99186821527348E-17
      1.79496869082303E-19   3.00981790218171E-17   1.54900070975700E-15  -5.24321892848787E+00  -5.24321892848787E+00
      0.00000000000000E+00   0.00000000000000E+00  -4.76611713244908E-19  -2.96215673085722E-17  -3.00981790218171E-17
     -1.54900070975700E-15
      3.12160946424394E-01
      0.00000000000000E+00   0.00000000000000E+00   0.00000000000000E+00   0.00000000000000E+00   3.17197820434067E-17
      1.33474928625064E-19   3.18532569720317E-17   1.67583257909953E-15  -6.24321892848787E+00  -6.24321892848787E+00
      0.00000000000000E+00   0.00000000000000E+00  -4.84418565278236E-19  -3.13688384067533E-17  -3.18532569720315E-17
     -1.67583257909953E-15
      3.62160946424394E-01
      0.00000000000000E+00   0.00000000000000E+00   0.00000000000000E+00   0.00000000000000E+00   3.82448680574416E-17
      1.48248815005464E-19   3.83931168724471E-17   1.79278279656996E-15  -7.24321892848787E+00  -7.24321892848787E+00
      0.00000000000000E+00   0.00000000000000E+00  -4.93520790468846E-19  -3.78995960819781E-17  -3.83931168724470E-17
     -1.79278279656995E-15
      4.12160946424393E-01
      0.00000000000000E+00   0.00000000000000E+00   0.00000000000000E+00   0.00000000000000E+00   4.17788603536398E-17
      2.32682462488955E-19   4.20115428161288E-17   1.90362768684497E-15  -8.24321892848787E+00  -8.24321892848787E+00
      0.00000000000000E+00   0.00000000000000E+00  -5.09732046167132E-19  -4.15018107699615E-17  -4.20115428161286E-17
     -1.90362768684497E-15
      4.62160946424393E-01
      0.00000000000000E+00   0.00000000000000E+00   0.00000000000000E+00   0.00000000000000E+00   4.69871676900359E-17
      5.42565780501025E-19   4.75297334705369E-17   2.00775690124977E-15  -9.24321892848787E+00  -9.24321892848787E+00
      0.00000000000000E+00   0.00000000000000E+00  -5.57210395066510E-19  -4.69725230754704E-17  -4.75297334705369E-17
     -2.00775690124978E-15
      5.12160946424393E-01
      0.00000000000000E+00   0.00000000000000E+00   0.00000000000000E+00   0.00000000000000E+00   5.54384275983019E-17
      2.40597103564509E-19   5.56790247018664E-17   2.10710146245202E-15  -1.02432189284879E+01  -1.02432189284879E+01
      0.00000000000000E+00   0.00000000000000E+00  -5.26533717211760E-19  -5.51524909846546E-17  -5.56790247018663E-17
     -2.10710146245202E-15
      5.62160946424394E-01
      0.00000000000000E+00   0.00000000000000E+00   0.00000000000000E+00   0.00000000000000E+00   6.02222590579504E-17
      2.44485997523231E-19   6.04667450554736E-17   2.20228701663550E-15  -1.12432189284879E+01  -1.12432189284879E+01
      0.00000000000000E+00   0.00000000000000E+00  -5.34696154375909E-19  -5.99320489010974E-17  -6.04667450554733E-17
     -2.20228701663549E-15
      6.12160946424394E-01
      0.00000000000000E+00   0.00000000000000E+00   0.00000000000000E+00   0.00000000000000E+00   7.30749394722317E-17
      2.48300512452685E-19   7.33232399846844E-17   2.29292258588504E-15  -1.22432189284879E+01  -1.22432189284879E+01
      0.00000000000000E+00   0.00000000000000E+00  -5.42836985649033E-19  -7.27804029990356E-17  -7.33232399846846E-17
     -2.29292258588506E-15
      6.62160946424394E-01
      0.00000000000000E+00   0.00000000000000E+00   0.00000000000000E+00   0.00000000000000E+00   8.40171599332135E-17
      2.52088867418512E-19   8.42692488006320E-17   2.38078817533544E-15  -1.32432189284879E+01  -1.32432189284879E+01
      0.00000000000000E+00   0.00000000000000E+00  -5.50870718340719E-19  -8.37183780822914E-17  -8.42692488006321E-17
     -2.38078817533545E-15
      7.12160946424394E-01
      0.00000000000000E+00   0.00000000000000E+00   0.00000000000000E+00   0.00000000000000E+00   9.59527530637361E-17
      2.55886267103060E-19   9.62086393308392E-17   2.46540477887781E-15  -1.42432189284879E+01  -1.42432189284879E+01
      0.00000000000000E+00   0.00000000000000E+00  -5.58830396509836E-19  -9.56498089343288E-17  -9.62086393308387E-17
     -2.46540477887781E-15
      7.62160946424394E-01
      0.00000000000000E+00   0.00000000000000E+00   0.00000000000000E+00   0.00000000000000E+00   1.22288326768128E-16
      2.59636724485088E-19   1.22547963492613E-16   2.54684337361358E-15  -1.52432189284879E+01  -1.52432189284879E+01
      0.00000000000000E+00   0.00000000000000E+00  -5.66826380518365E-19  -1.21981137112094E-16  -1.22547963492613E-16
     -2.54684337361359E-15
      8.12160946424394E-01
      0.00000000000000E+00   0.00000000000000E+00   0.00000000000000E+00   0.00000000000000E+00   1.51078863323531E-16
      2.46778700025040E-19   1.51325642023556E-16   2.62630929489659E-15  -1.62432189284879E+01  -1.62432189284879E+01
      0.00000000000000E+00   0.00000000000000E+00  -5.71688284425574E-19  -1.50753953739130E-16  -1.51325642023555E-16
     -2.62630929489658E-15
      8.62160946424394E-01
      0.00000000000000E+00   0.00000000000000E+00   0.00000000000000E+00   0.00000000000000E+00   1.91823919674042E-16
      2.67154937232910E-19   1.92091074611275E-16   2.70339889783195E-15  -1.72432189284879E+01  -1.72432189284879E+01
      0.00000000000000E+00   0.00000000000000E+00  -5.82629417741860E-19  -1.91508445193532E-16  -1.92091074611274E-16
     -2.70339889783195E-15
      9.12160946424394E-01
      0.00000000000000E+00   0.00000000000000E+00   0.00000000000000E+00   0.00000000000000E+00   2.80765409061330E-16
      2.70898715273223E-19   2.81036307776603E-16   2.77794766572002E-15  -1.82432189284879E+01  -1.82432189284879E+01
      0.00000000000000E+00   0.00000000000000E+00  -5.90574606983376E-19  -2.80445733169620E-16  -2.81036307776604E-16
     -2.77794766572002E-15
      9.62160946424394E-01
      0.00000000000000E+00   0.00000000000000E+00   0.00000000000000E+00   0.00000000000000E+00   4.76460581971755E-16
      2.32850842046317E-19   4.76693432813801E-16   2.85090525814567E-15  -1.92432189284879E+01  -1.92432189284879E+01
      0.00000000000000E+00   0.00000000000000E+00  -5.88147964280005E-19  -4.76105284849519E-16  -4.76693432813799E-16
     -2.85090525814568E-15
      1.00000000000000E+00
      0.00000000000000E+00   0.00000000000000E+00   0.00000000000000E+00   0.00000000000000E+00   9.10178165259518E-16
      2.77501086399380E-19   9.10455666345917E-16   2.90508721221098E-15  -2.00000000000000E+01  -2.00000000000000E+01
      0.00000000000000E+00   0.00000000000000E+00  -6.04483501880068E-19  -9.09851182844033E-16  -9.10455666345913E-16
     -2.90508721221099E-15
}
