DF-ISE text

Info {
  version   = 1.0
  type      = xyplot
  datasets  = [
    "time"
    "Cathode OuterVoltage" "Cathode InnerVoltage" "Cathode QuasiFermiPotential" "Cathode DisplacementCurrent" "Cathode eCurrent"
    "Cathode hCurrent" "Cathode TotalCurrent" "Cathode Charge" "Anode OuterVoltage" "Anode InnerVoltage"
    "Anode QuasiFermiPotential" "Anode DisplacementCurrent" "Anode eCurrent" "Anode hCurrent" "Anode TotalCurrent"
    "Anode Charge" ]
  functions = [
    Time
    OuterVoltage InnerVoltage QuasiFermiPotential DisplacementCurrent eCurrent
    hCurrent TotalCurrent Charge OuterVoltage InnerVoltage
    QuasiFermiPotential DisplacementCurrent eCurrent hCurrent TotalCurrent
    Charge ]
}

Data {
      0.00000000000000E+00
      0.00000000000000E+00   0.00000000000000E+00   0.00000000000000E+00   0.00000000000000E+00  -6.74115722458708E-26
      2.93597182315862E-25   2.26185610069991E-25   5.28941943767407E-16   0.00000000000000E+00   0.00000000000000E+00
      0.00000000000000E+00   0.00000000000000E+00   6.74115645827379E-26  -2.93597174652734E-25  -2.26185610069996E-25
     -5.28941943767407E-16
      0.00000000000000E+00
      0.00000000000000E+00   0.00000000000000E+00   0.00000000000000E+00   0.00000000000000E+00  -8.30875544197565E-26
      8.00477366113444E-25   7.17389811693687E-25   5.28941933930105E-16   0.00000000000000E+00   0.00000000000000E+00
      0.00000000000000E+00   0.00000000000000E+00   8.30875493000826E-26  -8.00477360993773E-25  -7.17389811693691E-25
     -5.28941933930104E-16
      1.00000000000000E-03
      0.00000000000000E+00   0.00000000000000E+00   0.00000000000000E+00   0.00000000000000E+00  -4.33580018251665E-20
     -7.68283800375859E-21  -5.10408398289251E-20   5.28571447055827E-16   1.00000000000000E-03   1.00000000000000E-03
      0.00000000000000E+00   0.00000000000000E+00   1.75059309385961E-20   3.35349088903291E-20   5.10408398289252E-20
     -5.28571447055826E-16
      2.28400000000000E-03
      0.00000000000000E+00   0.00000000000000E+00   0.00000000000000E+00   0.00000000000000E+00  -1.00775727414361E-19
     -1.69029197544997E-20  -1.17678647168860E-19   5.28095382421887E-16   2.28400000000000E-03   2.28400000000000E-03
      0.00000000000000E+00   0.00000000000000E+00   4.10986322525412E-20   7.65800149163190E-20   1.17678647168860E-19
     -5.28095382421887E-16
      3.95320000000000E-03
      0.00000000000000E+00   0.00000000000000E+00   0.00000000000000E+00   0.00000000000000E+00  -1.78368866247305E-19
     -2.89890887763859E-20  -2.07357955023691E-19   5.27475892548549E-16   3.95320000000000E-03   3.95320000000000E-03
      0.00000000000000E+00   0.00000000000000E+00   7.36270795620794E-20   1.33730875461612E-19   2.07357955023691E-19
     -5.27475892548548E-16
      6.12316000000000E-03
      0.00000000000000E+00   0.00000000000000E+00   0.00000000000000E+00   0.00000000000000E+00  -2.84737887792856E-19
     -4.24870891572047E-20  -3.27224976950061E-19   5.26669528331943E-16   6.12316000000000E-03   6.12316000000000E-03
      0.00000000000000E+00   0.00000000000000E+00   1.19494993059717E-19   2.07729983890346E-19   3.27224976950063E-19
     -5.26669528331940E-16
      8.94410800000000E-03
      0.00000000000000E+00   0.00000000000000E+00   0.00000000000000E+00   0.00000000000000E+00  -4.30703422598873E-19
     -8.04914800317102E-20  -5.11194902630584E-19   5.25619510831032E-16   8.94410800000000E-03   8.94410800000000E-03
      0.00000000000000E+00   0.00000000000000E+00   1.83406576250348E-19   3.27788326380238E-19   5.11194902630587E-19
     -5.25619510831030E-16
      1.25887728160000E-02
      0.00000000000000E+00   0.00000000000000E+00   0.00000000000000E+00   0.00000000000000E+00  -6.37678014194655E-19
     -1.22137737436149E-19  -7.59815751630804E-19   5.24259952244580E-16   1.25887728160000E-02   1.25887728160000E-02
      0.00000000000000E+00   0.00000000000000E+00   2.78300959079719E-19   4.81514792551084E-19   7.59815751630803E-19
     -5.24259952244581E-16
      1.72976797582720E-02
      0.00000000000000E+00   0.00000000000000E+00   0.00000000000000E+00   0.00000000000000E+00  -9.37601962835136E-19
     -1.85393322259550E-19  -1.12299528509469E-18   5.22498464647570E-16   1.72976797582720E-02   1.72976797582720E-02
      0.00000000000000E+00   0.00000000000000E+00   4.22433933984229E-19   7.00561351110459E-19   1.12299528509469E-18
     -5.22498464647569E-16
      2.33815875276874E-02
      0.00000000000000E+00   0.00000000000000E+00   0.00000000000000E+00   0.00000000000000E+00  -1.38879307025133E-18
     -2.86141824969393E-19  -1.67493489522072E-18   5.20214299100331E-16   2.33815875276874E-02   2.33815875276874E-02
      0.00000000000000E+00   0.00000000000000E+00   6.51997940097826E-19   1.02293695512290E-18   1.67493489522073E-18
     -5.20214299100334E-16
      3.12419963657722E-02
      0.00000000000000E+00   0.00000000000000E+00   0.00000000000000E+00   0.00000000000000E+00  -2.10275499078266E-18
     -4.56782285633522E-19  -2.55953727641618E-18   5.17249085165337E-16   3.12419963657722E-02   3.12419963657722E-02
      0.00000000000000E+00   0.00000000000000E+00   1.04081608035329E-18   1.51872119606289E-18   2.55953727641617E-18
     -5.17249085165337E-16
      4.13976445845776E-02
      0.00000000000000E+00   0.00000000000000E+00   0.00000000000000E+00   0.00000000000000E+00  -3.31281572147636E-18
     -7.69770423103014E-19  -4.08258614457938E-18   5.13394145787421E-16   4.13976445845776E-02   4.13976445845776E-02
      0.00000000000000E+00   0.00000000000000E+00   1.75398597046810E-18   2.32860017411126E-18   4.08258614457936E-18
     -5.13394145787419E-16
      5.45187420832743E-02
      0.00000000000000E+00   0.00000000000000E+00   0.00000000000000E+00   0.00000000000000E+00  -5.56473477688699E-18
     -1.40634942312642E-18  -6.97108420001340E-18   5.08372821862813E-16   5.45187420832743E-02   5.45187420832743E-02
      0.00000000000000E+00   0.00000000000000E+00   3.20448396901263E-18   3.76660023100079E-18   6.97108420001342E-18
     -5.08372821862813E-16
      7.14712000515904E-02
      0.00000000000000E+00   0.00000000000000E+00   0.00000000000000E+00   0.00000000000000E+00  -1.03256751434064E-17
     -2.88693813755654E-18  -1.32126132809630E-17   5.01815292856826E-16   7.14712000515904E-02   7.14712000515904E-02
      0.00000000000000E+00   0.00000000000000E+00   6.57813015593859E-18   6.63448312502444E-18   1.32126132809630E-17
     -5.01815292856823E-16
      9.33737757466548E-02
      0.00000000000000E+00   0.00000000000000E+00   0.00000000000000E+00   0.00000000000000E+00  -2.22998725884596E-17
     -6.98648809412040E-18  -2.92863606825800E-17   4.93221663634238E-16   9.33737757466548E-02   9.33737757466548E-02
      0.00000000000000E+00   0.00000000000000E+00   1.59193192178754E-17   1.33670414647047E-17   2.92863606825801E-17
     -4.93221663634238E-16
      1.21671903544678E-01
      0.00000000000000E+00   0.00000000000000E+00   0.00000000000000E+00   0.00000000000000E+00  -6.03839701057520E-17
     -2.12294146319623E-17  -8.16133847377143E-17   4.81905786321639E-16   1.21671903544678E-01   1.21671903544678E-01
      0.00000000000000E+00   0.00000000000000E+00   4.83733345572071E-17   3.32400501805073E-17   8.16133847377144E-17
     -4.81905786321640E-16
      1.58233084659724E-01
      0.00000000000000E+00   0.00000000000000E+00   0.00000000000000E+00   0.00000000000000E+00  -2.26021239763007E-16
     -8.77538378050853E-17  -3.13775077568093E-16   4.66905453494902E-16   1.58233084659724E-01   1.58233084659724E-01
      0.00000000000000E+00   0.00000000000000E+00   1.99960329290149E-16   1.13814748277943E-16   3.13775077568092E-16
     -4.66905453494902E-16
      2.05470130660363E-01
      0.00000000000000E+00   0.00000000000000E+00   0.00000000000000E+00   0.00000000000000E+00  -1.31094908106767E-15
     -5.45066517974354E-16  -1.85601559904202E-15   4.46829118986201E-16   2.05470130660363E-01   2.05470130660363E-01
      0.00000000000000E+00   0.00000000000000E+00   1.24198028726561E-15   6.14035311776419E-16   1.85601559904203E-15
     -4.46829118986202E-16
      2.55470130660363E-01
      0.00000000000000E+00   0.00000000000000E+00   0.00000000000000E+00   0.00000000000000E+00  -8.76076230216911E-15
     -3.76067787678497E-15  -1.25214401789541E-14   4.24617146878874E-16   2.55470130660363E-01   2.55470130660363E-01
      0.00000000000000E+00   0.00000000000000E+00   8.56902587561533E-15   3.95241430333877E-15   1.25214401789541E-14
     -4.24617146878875E-16
      3.05470130660363E-01
      0.00000000000000E+00   0.00000000000000E+00   0.00000000000000E+00   0.00000000000000E+00  -5.96346652388370E-14
     -2.59363368624680E-14  -8.55710021013050E-14   4.01267883685058E-16   3.05470130660363E-01   3.05470130660363E-01
      0.00000000000000E+00   0.00000000000000E+00   5.90981754361554E-14   2.64728266651496E-14   8.55710021013051E-14
     -4.01267883685058E-16
      3.55470130660363E-01
      0.00000000000000E+00   0.00000000000000E+00   0.00000000000000E+00   0.00000000000000E+00  -4.09029430928299E-13
     -1.78839111727483E-13  -5.87868542655781E-13   3.76588708120174E-16   3.55470130660363E-01   3.55470130660363E-01
      0.00000000000000E+00   0.00000000000000E+00   4.07500391931923E-13   1.80368150723859E-13   5.87868542655781E-13
     -3.76588708120173E-16
      4.05470130660363E-01
      0.00000000000000E+00   0.00000000000000E+00   0.00000000000000E+00   0.00000000000000E+00  -2.81378465545658E-12
     -1.23289884788494E-12  -4.04668350334151E-12   3.50328927177720E-16   4.05470130660363E-01   4.05470130660363E-01
      0.00000000000000E+00   0.00000000000000E+00   2.80926687256233E-12   1.23741663077918E-12   4.04668350334151E-12
     -3.50328927177717E-16
      4.55470130660363E-01
      0.00000000000000E+00   0.00000000000000E+00   0.00000000000000E+00   0.00000000000000E+00  -1.93762928112391E-11
     -8.49738584725885E-12  -2.78736786584979E-11   3.22156179461075E-16   4.55470130660363E-01   4.55470130660363E-01
      0.00000000000000E+00   0.00000000000000E+00   1.93620235126442E-11   8.51165514585368E-12   2.78736786584979E-11
     -3.22156179461075E-16
      5.05470130660363E-01
      0.00000000000000E+00   0.00000000000000E+00   0.00000000000000E+00   0.00000000000000E+00  -1.33454275833508E-10
     -5.85468267566634E-11  -1.92001102590171E-10   2.91624607676951E-16   5.05470130660363E-01   5.05470130660363E-01
      0.00000000000000E+00   0.00000000000000E+00   1.33403798418010E-10   5.85973041721612E-11   1.92001102590171E-10
     -2.91624607676950E-16
      5.55470130660363E-01
      0.00000000000000E+00   0.00000000000000E+00   0.00000000000000E+00   0.00000000000000E+00  -9.18896248034856E-10
     -4.03184794754605E-10  -1.32208104278946E-09   2.58141033816186E-16   5.55470130660363E-01   5.55470130660363E-01
      0.00000000000000E+00   0.00000000000000E+00   9.18686609553044E-10   4.03394433236415E-10   1.32208104278946E-09
     -2.58141033816186E-16
      6.05470130660363E-01
      0.00000000000000E+00   0.00000000000000E+00   0.00000000000000E+00   0.00000000000000E+00  -6.31996706352634E-09
     -2.77322133177367E-09  -9.09318839530000E-09   2.20969576056487E-16   6.05470130660363E-01   6.05470130660363E-01
      0.00000000000000E+00   0.00000000000000E+00   6.31893257536542E-09   2.77425581993457E-09   9.09318839529999E-09
     -2.20969576056488E-16
      6.55470130660364E-01
      0.00000000000000E+00   0.00000000000000E+00   0.00000000000000E+00   0.00000000000000E+00  -4.32481602294985E-08
     -1.89784164724147E-08  -6.22265767019132E-08   1.79465821933668E-16   6.55470130660364E-01   6.55470130660364E-01
      0.00000000000000E+00   0.00000000000000E+00   4.32423435491185E-08   1.89842331527947E-08   6.22265767019132E-08
     -1.79465821933667E-16
      7.05470130660364E-01
      0.00000000000000E+00   0.00000000000000E+00   0.00000000000000E+00   0.00000000000000E+00  -2.87623235249781E-07
     -1.26225557539621E-07  -4.13848792789402E-07   1.34342537292820E-16   7.05470130660364E-01   7.05470130660364E-01
      0.00000000000000E+00   0.00000000000000E+00   2.87589518790444E-07   1.26259273998957E-07   4.13848792789401E-07
     -1.34342537292820E-16
      7.55470130660364E-01
      0.00000000000000E+00   0.00000000000000E+00   0.00000000000000E+00   0.00000000000000E+00  -1.66162686173898E-06
     -7.29311312933324E-07  -2.39093817467230E-06   9.15693825368228E-17   7.55470130660364E-01   7.55470130660364E-01
      0.00000000000000E+00   0.00000000000000E+00   1.66146927095381E-06   7.29468903718492E-07   2.39093817467230E-06
     -9.15693825368226E-17
      8.05470130660364E-01
      0.00000000000000E+00   0.00000000000000E+00   0.00000000000000E+00   0.00000000000000E+00  -6.64126326358020E-06
     -2.91538800269611E-06  -9.55665126627631E-06   6.13964826367269E-17   8.05470130660364E-01   8.05470130660364E-01
      0.00000000000000E+00   0.00000000000000E+00   6.64082378201934E-06   2.91582748425695E-06   9.55665126627628E-06
     -6.13964826367269E-17
      8.55470130660364E-01
      0.00000000000000E+00   0.00000000000000E+00   0.00000000000000E+00   0.00000000000000E+00  -1.75662044132078E-05
     -7.71200357612415E-06  -2.52782079893320E-05   4.39532458073066E-17   8.55470130660364E-01   8.55470130660364E-01
      0.00000000000000E+00   0.00000000000000E+00   1.75654000943917E-05   7.71280789494037E-06   2.52782079893320E-05
     -4.39532458073064E-17
      9.05470130660364E-01
      0.00000000000000E+00   0.00000000000000E+00   0.00000000000000E+00   0.00000000000000E+00  -3.52468801974219E-05
     -1.54750998182669E-05  -5.07219800156888E-05   3.35030476814373E-17   9.05470130660364E-01   9.05470130660364E-01
      0.00000000000000E+00   0.00000000000000E+00   3.52456890459295E-05   1.54762909697594E-05   5.07219800156889E-05
     -3.35030476814373E-17
      9.55470130660364E-01
      0.00000000000000E+00   0.00000000000000E+00   0.00000000000000E+00   0.00000000000000E+00  -5.98211602104743E-05
     -2.62652007826762E-05  -8.60863609931505E-05   2.65851832963917E-17   9.55470130660364E-01   9.55470130660364E-01
      0.00000000000000E+00   0.00000000000000E+00   5.98195776716200E-05   2.62667833215306E-05   8.60863609931506E-05
     -2.65851832963917E-17
      1.00000000000000E+00
      0.00000000000000E+00   0.00000000000000E+00   0.00000000000000E+00   0.00000000000000E+00  -8.74733275536760E-05
     -3.84068603021659E-05  -1.25880187855842E-04   2.20834223323079E-17   1.00000000000000E+00   1.00000000000000E+00
      0.00000000000000E+00   0.00000000000000E+00   8.74713968844932E-05   3.84087909713487E-05   1.25880187855842E-04
     -2.20834223323079E-17
}
