DF-ISE text

Info {
  version   = 1.0
  type      = xyplot
  datasets  = [
    "time"
    "Cathode OuterVoltage" "Cathode InnerVoltage" "Cathode QuasiFermiPotential" "Cathode DisplacementCurrent" "Cathode eCurrent"
    "Cathode hCurrent" "Cathode TotalCurrent" "Cathode Charge" "Anode OuterVoltage" "Anode InnerVoltage"
    "Anode QuasiFermiPotential" "Anode DisplacementCurrent" "Anode eCurrent" "Anode hCurrent" "Anode TotalCurrent"
    "Anode Charge" ]
  functions = [
    Time
    OuterVoltage InnerVoltage QuasiFermiPotential DisplacementCurrent eCurrent
    hCurrent TotalCurrent Charge OuterVoltage InnerVoltage
    QuasiFermiPotential DisplacementCurrent eCurrent hCurrent TotalCurrent
    Charge ]
}

Data {
      0.00000000000000E+00
      0.00000000000000E+00   0.00000000000000E+00   0.00000000000000E+00   0.00000000000000E+00  -6.74115722458708E-26
      2.93597182315862E-25   2.26185610069991E-25   5.28941943767407E-16   0.00000000000000E+00   0.00000000000000E+00
      0.00000000000000E+00   0.00000000000000E+00   6.74115645827379E-26  -2.93597174652734E-25  -2.26185610069996E-25
     -5.28941943767407E-16
      0.00000000000000E+00
      0.00000000000000E+00   0.00000000000000E+00   0.00000000000000E+00   0.00000000000000E+00  -8.30875544197565E-26
      8.00477366113444E-25   7.17389811693687E-25   5.28941933930105E-16   0.00000000000000E+00   0.00000000000000E+00
      0.00000000000000E+00   0.00000000000000E+00   8.30875493000826E-26  -8.00477360993773E-25  -7.17389811693691E-25
     -5.28941933930104E-16
      0.00000000000000E+00
      0.00000000000000E+00   0.00000000000000E+00   0.00000000000000E+00   0.00000000000000E+00   3.41843541479924E-27
     -2.58218440545739E-26  -2.24034086397747E-26   5.28941933930104E-16   0.00000000000000E+00   0.00000000000000E+00
      0.00000000000000E+00   0.00000000000000E+00  -3.41844222850130E-27   2.58218508682761E-26   2.24034086397748E-26
     -5.28941933930103E-16
      1.00000000000000E-03
      0.00000000000000E+00   0.00000000000000E+00   0.00000000000000E+00   0.00000000000000E+00  -8.78340423705172E-20
     -1.56678677822530E-20  -1.03501910152770E-19   5.28200715065776E-16   2.00000000000000E-03   2.00000000000000E-03
      0.00000000000000E+00   0.00000000000000E+00   3.57005091761288E-20   6.78014009766412E-20   1.03501910152770E-19
     -5.28200715065775E-16
      2.28400000000000E-03
      0.00000000000000E+00   0.00000000000000E+00   0.00000000000000E+00   0.00000000000000E+00  -2.07430715088944E-19
     -3.76423859907430E-20  -2.45073101079687E-19   5.27247548950264E-16   4.56800000000000E-03   4.56800000000000E-03
      0.00000000000000E+00   0.00000000000000E+00   8.57712824303262E-20   1.59301818649360E-19   2.45073101079686E-19
     -5.27247548950264E-16
      3.94292800000000E-03
      0.00000000000000E+00   0.00000000000000E+00   0.00000000000000E+00   0.00000000000000E+00  -3.74314171815604E-19
     -6.94568006926473E-20  -4.43770972508252E-19   5.26013646654598E-16   7.88585600000000E-03   7.88585600000000E-03
      0.00000000000000E+00   0.00000000000000E+00   1.58262983927719E-19   2.85507988580531E-19   4.43770972508251E-19
     -5.26013646654598E-16
      6.08626297600000E-03
      0.00000000000000E+00   0.00000000000000E+00   0.00000000000000E+00   0.00000000000000E+00  -6.12991288163309E-19
     -1.17079816597806E-19  -7.30071104761115E-19   5.24415391695194E-16   1.21725259520000E-02   1.21725259520000E-02
      0.00000000000000E+00   0.00000000000000E+00   2.66775992584293E-19   4.63295112176819E-19   7.30071104761112E-19
     -5.24415391695191E-16
      8.85545176499200E-03
      0.00000000000000E+00   0.00000000000000E+00   0.00000000000000E+00   0.00000000000000E+00  -9.65845980350000E-19
     -1.91512750718916E-19  -1.15735873106892E-18   5.22343620408671E-16   1.77109035299840E-02   1.77109035299840E-02
      0.00000000000000E+00   0.00000000000000E+00   4.36377472840798E-19   7.20981258228121E-19   1.15735873106892E-18
     -5.22343620408669E-16
      1.24332436803697E-02
      0.00000000000000E+00   0.00000000000000E+00   0.00000000000000E+00   0.00000000000000E+00  -1.51138900235964E-18
     -3.14538877815446E-19  -1.82592788017508E-18   5.19655366026578E-16   2.48664873607393E-02   2.48664873607393E-02
      0.00000000000000E+00   0.00000000000000E+00   7.16702674643562E-19   1.10922520553152E-18   1.82592788017508E-18
     -5.19655366026580E-16
      1.70557508350376E-02
      0.00000000000000E+00   0.00000000000000E+00   0.00000000000000E+00   0.00000000000000E+00  -2.40774685540370E-18
     -5.33160655468808E-19  -2.94090751087251E-18   5.16162611256575E-16   3.41115016700752E-02   3.41115016700752E-02
      0.00000000000000E+00   0.00000000000000E+00   1.21485063648051E-18   1.72605687439200E-18   2.94090751087251E-18
     -5.16162611256574E-16
      2.30280300788686E-02
      0.00000000000000E+00   0.00000000000000E+00   0.00000000000000E+00   0.00000000000000E+00  -4.00789920859558E-18
     -9.59920107557591E-19  -4.96781931615317E-18   5.11616726544768E-16   4.60560601577372E-02   4.60560601577372E-02
      0.00000000000000E+00   0.00000000000000E+00   2.18725797766162E-18   2.78056133849157E-18   4.96781931615318E-18
     -5.11616726544766E-16
      2.50000000000000E-02
      0.00000000000000E+00   0.00000000000000E+00   0.00000000000000E+00   0.00000000000000E+00  -4.68143566583010E-18
     -1.14992546177994E-18  -5.83136112761004E-18   5.10107357239075E-16   5.00000000000000E-02   5.00000000000000E-02
      0.00000000000000E+00   0.00000000000000E+00   2.62020067753909E-18   3.21116045007099E-18   5.83136112761007E-18
     -5.10107357239074E-16
      3.27161847830296E-02
      0.00000000000000E+00   0.00000000000000E+00   0.00000000000000E+00   0.00000000000000E+00  -8.31733292917828E-18
     -2.24581210160074E-18  -1.05631450307790E-17   5.04160428838176E-16   6.54323695660593E-02   6.54323695660593E-02
      0.00000000000000E+00   0.00000000000000E+00   5.11726960043527E-18   5.44587543034382E-18   1.05631450307791E-17
     -5.04160428838177E-16
      4.26854955227039E-02
      0.00000000000000E+00   0.00000000000000E+00   0.00000000000000E+00   0.00000000000000E+00  -1.68526532373378E-17
     -5.07698458975768E-18  -2.19296378270955E-17   4.96377830009893E-16   8.53709910454078E-02   8.53709910454078E-02
      0.00000000000000E+00   0.00000000000000E+00   1.15683416229053E-17   1.03612962041903E-17   2.19296378270956E-17
     -4.96377830009893E-16
      5.00000000000000E-02
      0.00000000000000E+00   0.00000000000000E+00   0.00000000000000E+00   0.00000000000000E+00  -2.81217408638849E-17
     -9.08110795213234E-18  -3.72028488160172E-17   4.90593953031657E-16   1.00000000000000E-01   1.00000000000000E-01
      0.00000000000000E+00   0.00000000000000E+00   2.06920655224410E-17   1.65107832935763E-17   3.72028488160173E-17
     -4.90593953031658E-16
      6.28803494756592E-02
      0.00000000000000E+00   0.00000000000000E+00   0.00000000000000E+00   0.00000000000000E+00  -6.98453406858839E-17
     -2.48948539566816E-17  -9.47401946425655E-17   4.80250069161568E-16   1.25760698951318E-01   1.25760698951318E-01
      0.00000000000000E+00   0.00000000000000E+00   5.67250767732658E-17   3.80151178692997E-17   9.47401946425655E-17
     -4.80250069161569E-16
      7.50000000000000E-02
      0.00000000000000E+00   0.00000000000000E+00   0.00000000000000E+00   0.00000000000000E+00  -1.67306406726874E-16
     -6.37952345728577E-17  -2.31101641299732E-16   4.70322440689033E-16   1.50000000000000E-01   1.50000000000000E-01
      0.00000000000000E+00   0.00000000000000E+00   1.45362939716079E-16   8.57387015836534E-17   2.31101641299732E-16
     -4.70322440689033E-16
      9.16414115225517E-02
      0.00000000000000E+00   0.00000000000000E+00   0.00000000000000E+00   0.00000000000000E+00  -5.70656667627191E-16
     -2.31241646249252E-16  -8.01898313876443E-16   4.56361886683718E-16   1.83282823045103E-01   1.83282823045103E-01
      0.00000000000000E+00   0.00000000000000E+00   5.26904354230897E-16   2.74993959645543E-16   8.01898313876440E-16
     -4.56361886683719E-16
      1.00000000000000E-01
      0.00000000000000E+00   0.00000000000000E+00   0.00000000000000E+00   0.00000000000000E+00  -1.06701928983107E-15
     -4.41220731072701E-16  -1.50824002090377E-15   4.49196912892417E-16   2.00000000000000E-01   2.00000000000000E-01
      0.00000000000000E+00   0.00000000000000E+00   1.00535855279403E-15   5.02881468109739E-16   1.50824002090377E-15
     -4.49196912892417E-16
      1.21500703687137E-01
      0.00000000000000E+00   0.00000000000000E+00   0.00000000000000E+00   0.00000000000000E+00  -5.44261676084848E-15
     -2.32342498842582E-15  -7.76604174927431E-15   4.30256195013806E-16   2.43001407374273E-01   2.43001407374273E-01
      0.00000000000000E+00   0.00000000000000E+00   5.29405646615889E-15   2.47198528311540E-15   7.76604174927429E-15
     -4.30256195013806E-16
      1.25000000000000E-01
      0.00000000000000E+00   0.00000000000000E+00   0.00000000000000E+00   0.00000000000000E+00  -7.10847420240017E-15
     -3.04445386003702E-15  -1.01529280624372E-14   4.27099573356721E-16   2.50000000000000E-01   2.50000000000000E-01
      0.00000000000000E+00   0.00000000000000E+00   6.93704795507513E-15   3.21588010736209E-15   1.01529280624372E-14
     -4.27099573356722E-16
      1.50000000000000E-01
      0.00000000000000E+00   0.00000000000000E+00   0.00000000000000E+00   0.00000000000000E+00  -4.83232254493764E-14
     -2.09973065209723E-14  -6.93205319703487E-14   4.03883248373584E-16   3.00000000000000E-01   3.00000000000000E-01
      0.00000000000000E+00   0.00000000000000E+00   4.78441685047028E-14   2.14763634656459E-14   6.93205319703487E-14
     -4.03883248373584E-16
      1.75000000000000E-01
      0.00000000000000E+00   0.00000000000000E+00   0.00000000000000E+00   0.00000000000000E+00  -3.31269132684355E-13
     -1.44786021519853E-13  -4.76055154204208E-13   3.79360563869548E-16   3.50000000000000E-01   3.50000000000000E-01
      0.00000000000000E+00   0.00000000000000E+00   3.29907473021452E-13   1.46147681182757E-13   4.76055154204209E-13
     -3.79360563869547E-16
      2.00000000000000E-01
      0.00000000000000E+00   0.00000000000000E+00   0.00000000000000E+00   0.00000000000000E+00  -2.27840621695282E-12
     -9.98164187566098E-13  -3.27657040451892E-12   3.53288183210397E-16   4.00000000000000E-01   4.00000000000000E-01
      0.00000000000000E+00   0.00000000000000E+00   2.27440362179760E-12   1.00216678272133E-12   3.27657040451893E-12
     -3.53288183210393E-16
      2.25000000000000E-01
      0.00000000000000E+00   0.00000000000000E+00   0.00000000000000E+00   0.00000000000000E+00  -1.56886336005331E-11
     -6.87975279758918E-12  -2.25683863981223E-11   3.25344088596040E-16   4.50000000000000E-01   4.50000000000000E-01
      0.00000000000000E+00   0.00000000000000E+00   1.56761087578662E-11   6.89227764025609E-12   2.25683863981223E-11
     -3.25344088596041E-16
      2.50000000000000E-01
      0.00000000000000E+00   0.00000000000000E+00   0.00000000000000E+00   0.00000000000000E+00  -1.08056020621133E-10
     -4.74032994911027E-11  -1.55459320112236E-10   2.95096586910979E-16   5.00000000000000E-01   5.00000000000000E-01
      0.00000000000000E+00   0.00000000000000E+00   1.08012371787063E-10   4.74469483251724E-11   1.55459320112235E-10
     -2.95096586910980E-16
      2.75000000000000E-01
      0.00000000000000E+00   0.00000000000000E+00   0.00000000000000E+00   0.00000000000000E+00  -7.44059650279570E-10
     -3.26467860372123E-10  -1.07052751065169E-09   2.61969795944568E-16   5.50000000000000E-01   5.50000000000000E-01
      0.00000000000000E+00   0.00000000000000E+00   7.43881796284046E-10   3.26645714367650E-10   1.07052751065170E-09
     -2.61969795944569E-16
      3.00000000000000E-01
      0.00000000000000E+00   0.00000000000000E+00   0.00000000000000E+00   0.00000000000000E+00  -5.11853944179519E-09
     -2.24601711556447E-09  -7.36455655735966E-09   2.25239410454677E-16   6.00000000000000E-01   6.00000000000000E-01
      0.00000000000000E+00   0.00000000000000E+00   5.11767724276241E-09   2.24687931459724E-09   7.36455655735965E-09
     -2.25239410454677E-16
      3.25000000000000E-01
      0.00000000000000E+00   0.00000000000000E+00   0.00000000000000E+00   0.00000000000000E+00  -3.50632381771657E-08
     -1.53865694303133E-08  -5.04498076074791E-08   1.84220756253745E-16   6.50000000000000E-01   6.50000000000000E-01
      0.00000000000000E+00   0.00000000000000E+00   3.50584419666688E-08   1.53913656408103E-08   5.04498076074791E-08
     -1.84220756253744E-16
      3.50000000000000E-01
      0.00000000000000E+00   0.00000000000000E+00   0.00000000000000E+00   0.00000000000000E+00  -2.34592185970703E-07
     -1.02951453996501E-07  -3.37543639967204E-07   1.39343203935245E-16   7.00000000000000E-01   7.00000000000000E-01
      0.00000000000000E+00   0.00000000000000E+00   2.34564252152010E-07   1.02979387815194E-07   3.37543639967204E-07
     -1.39343203935245E-16
      3.75000000000000E-01
      0.00000000000000E+00   0.00000000000000E+00   0.00000000000000E+00   0.00000000000000E+00  -1.39087937788093E-06
     -6.10466064536381E-07  -2.00134544241731E-06   9.57795232489639E-17   7.50000000000000E-01   7.50000000000000E-01
      0.00000000000000E+00   0.00000000000000E+00   1.39074325323238E-06   6.10602189184931E-07   2.00134544241731E-06
     -9.57795232489643E-17
      4.00000000000000E-01
      0.00000000000000E+00   0.00000000000000E+00   0.00000000000000E+00   0.00000000000000E+00  -5.83404089671192E-06
     -2.56099502892836E-06  -8.39503592564029E-06   6.39735810628682E-17   8.00000000000000E-01   8.00000000000000E-01
      0.00000000000000E+00   0.00000000000000E+00   5.83363805893773E-06   2.56139786670257E-06   8.39503592564030E-06
     -6.39735810628681E-17
      4.25000000000000E-01
      0.00000000000000E+00   0.00000000000000E+00   0.00000000000000E+00   0.00000000000000E+00  -1.60476353685089E-05
     -7.04525565850450E-06  -2.30928910270134E-05   4.54318807473767E-17   8.50000000000000E-01   8.50000000000000E-01
      0.00000000000000E+00   0.00000000000000E+00   1.60468725963879E-05   7.04601843062544E-06   2.30928910270134E-05
     -4.54318807473767E-17
      4.50000000000000E-01
      0.00000000000000E+00   0.00000000000000E+00   0.00000000000000E+00   0.00000000000000E+00  -3.29769477871394E-05
     -1.44784244413652E-05  -4.74553722285046E-05   3.44329695422631E-17   9.00000000000000E-01   9.00000000000000E-01
      0.00000000000000E+00   0.00000000000000E+00   3.29757993268547E-05   1.44795729016499E-05   4.74553722285046E-05
     -3.44329695422630E-17
      4.75000000000000E-01
      0.00000000000000E+00   0.00000000000000E+00   0.00000000000000E+00   0.00000000000000E+00  -5.67974699206497E-05
     -2.49375487155793E-05  -8.17350186362291E-05   2.72283417596813E-17   9.50000000000000E-01   9.50000000000000E-01
      0.00000000000000E+00   0.00000000000000E+00   5.67959302259929E-05   2.49390884102361E-05   8.17350186362290E-05
     -2.72283417596814E-17
      5.00000000000000E-01
      0.00000000000000E+00   0.00000000000000E+00   0.00000000000000E+00   0.00000000000000E+00  -8.74733275536862E-05
     -3.84068603021703E-05  -1.25880187855857E-04   2.20834223323076E-17   1.00000000000000E+00   1.00000000000000E+00
      0.00000000000000E+00   0.00000000000000E+00   8.74713968845035E-05   3.84087909713531E-05   1.25880187855857E-04
     -2.20834223323076E-17
      5.25000000000000E-01
      0.00000000000000E+00   0.00000000000000E+00   0.00000000000000E+00   0.00000000000000E+00  -1.24879368354482E-04
     -5.48313996416310E-05  -1.79710767996113E-04   1.81654521607654E-17   1.05000000000000E+00   1.05000000000000E+00
      0.00000000000000E+00   0.00000000000000E+00   1.24877049420408E-04   5.48337185757050E-05   1.79710767996113E-04
     -1.81654521607655E-17
      5.50000000000000E-01
      0.00000000000000E+00   0.00000000000000E+00   0.00000000000000E+00   0.00000000000000E+00  -1.68825628298621E-04
     -7.41277556642572E-05  -2.42953383962879E-04   1.50363848044812E-17   1.10000000000000E+00   1.10000000000000E+00
      0.00000000000000E+00   0.00000000000000E+00   1.68822925352441E-04   7.41304586104378E-05   2.42953383962879E-04
     -1.50363848044812E-17
      5.75000000000000E-01
      0.00000000000000E+00   0.00000000000000E+00   0.00000000000000E+00   0.00000000000000E+00  -2.19064929594165E-04
     -9.61873990777388E-05  -3.15252328671904E-04   1.24458821041430E-17   1.15000000000000E+00   1.15000000000000E+00
      0.00000000000000E+00   0.00000000000000E+00   2.19061848124371E-04   9.61904805475337E-05   3.15252328671905E-04
     -1.24458821041429E-17
      6.00000000000000E-01
      0.00000000000000E+00   0.00000000000000E+00   0.00000000000000E+00   0.00000000000000E+00  -2.75298304444672E-04
     -1.20879062246875E-04  -3.96177366691547E-04   1.02409243546538E-17   1.20000000000000E+00   1.20000000000000E+00
      0.00000000000000E+00   0.00000000000000E+00   2.75294851029679E-04   1.20882515661868E-04   3.96177366691547E-04
     -1.02409243546538E-17
      6.25000000000000E-01
      0.00000000000000E+00   0.00000000000000E+00   0.00000000000000E+00   0.00000000000000E+00  -3.37181110765674E-04
     -1.48051423728403E-04  -4.85232534494076E-04   8.32280212688982E-18   1.25000000000000E+00   1.25000000000000E+00
      0.00000000000000E+00   0.00000000000000E+00   3.37177292969050E-04   1.48055241525027E-04   4.85232534494078E-04
     -8.32280212688981E-18
      6.50000000000000E-01
      0.00000000000000E+00   0.00000000000000E+00   0.00000000000000E+00   0.00000000000000E+00  -4.04330286669047E-04
     -1.77536292380512E-04  -5.81866579049560E-04   6.62500406384294E-18   1.30000000000000E+00   1.30000000000000E+00
      0.00000000000000E+00   0.00000000000000E+00   4.04326112939152E-04   1.77540466110407E-04   5.81866579049559E-04
     -6.62500406384294E-18
      6.75000000000000E-01
      0.00000000000000E+00   0.00000000000000E+00   0.00000000000000E+00   0.00000000000000E+00  -4.76332617999419E-04
     -2.09152238233919E-04  -6.85484856233338E-04   5.10107573602094E-18   1.35000000000000E+00   1.35000000000000E+00
      0.00000000000000E+00   0.00000000000000E+00   4.76328097562680E-04   2.09156758670658E-04   6.85484856233337E-04
     -5.10107573602096E-18
      7.00000000000000E-01
      0.00000000000000E+00   0.00000000000000E+00   0.00000000000000E+00   0.00000000000000E+00  -5.52753731837197E-04
     -2.42708540168081E-04  -7.95462272005278E-04   3.71757514595820E-18   1.40000000000000E+00   1.40000000000000E+00
      0.00000000000000E+00   0.00000000000000E+00   5.52748874583015E-04   2.42713397422262E-04   7.95462272005277E-04
     -3.71757514595816E-18
      7.25000000000000E-01
      0.00000000000000E+00   0.00000000000000E+00   0.00000000000000E+00   0.00000000000000E+00  -6.33147487275820E-04
     -2.78009309347092E-04  -9.11156796622912E-04   2.44979089279429E-18   1.45000000000000E+00   1.45000000000000E+00
      0.00000000000000E+00   0.00000000000000E+00   6.33142303634441E-04   2.78014492988473E-04   9.11156796622914E-04
     -2.44979089279428E-18
      7.50000000000000E-01
      0.00000000000000E+00   0.00000000000000E+00   0.00000000000000E+00   0.00000000000000E+00  -7.17065401581449E-04
     -3.14857627921834E-04  -1.03192302950328E-03   1.27903528743169E-18   1.50000000000000E+00   1.50000000000000E+00
      0.00000000000000E+00   0.00000000000000E+00   7.17059902397426E-04   3.14863127105854E-04   1.03192302950328E-03
     -1.27903528743166E-18
      7.75000000000000E-01
      0.00000000000000E+00   0.00000000000000E+00   0.00000000000000E+00   0.00000000000000E+00  -8.04065732121175E-04
     -3.53059536652642E-04  -1.15712526877382E-03   1.90875336499759E-19   1.55000000000000E+00   1.55000000000000E+00
      0.00000000000000E+00   0.00000000000000E+00   8.04059928525741E-04   3.53065340248075E-04   1.15712526877382E-03
     -1.90875336499746E-19
      8.00000000000000E-01
      0.00000000000000E+00   0.00000000000000E+00   0.00000000000000E+00   0.00000000000000E+00  -8.93721829317081E-04
     -3.92427702508954E-04  -1.28614953182604E-03  -8.26055980819472E-19   1.60000000000000E+00   1.60000000000000E+00
      0.00000000000000E+00   0.00000000000000E+00   8.93715732602871E-04   3.92433799223165E-04   1.28614953182604E-03
      8.26055980819471E-19
      8.25000000000000E-01
      0.00000000000000E+00   0.00000000000000E+00   0.00000000000000E+00   0.00000000000000E+00  -9.85629397301510E-04
     -4.32784606709629E-04  -1.41841400401114E-03  -1.78087700704501E-18   1.65000000000000E+00   1.65000000000000E+00
      0.00000000000000E+00   0.00000000000000E+00   9.85623018803219E-04   4.32790985207919E-04   1.41841400401114E-03
      1.78087700704501E-18
      8.50000000000000E-01
      0.00000000000000E+00   0.00000000000000E+00   0.00000000000000E+00   0.00000000000000E+00  -1.07941235571436E-03
     -4.73965118591251E-04  -1.55337747430561E-03  -2.68102973745182E-18   1.70000000000000E+00   1.70000000000000E+00
      0.00000000000000E+00   0.00000000000000E+00   1.07940570669861E-03   4.73971767606994E-04   1.55337747430561E-03
      2.68102973745182E-18
      8.75000000000000E-01
      0.00000000000000E+00   0.00000000000000E+00   0.00000000000000E+00   0.00000000000000E+00  -1.17472709001693E-03
     -5.15818361934404E-04  -1.69054545195133E-03  -3.53268637921960E-18   1.75000000000000E+00   1.75000000000000E+00
      0.00000000000000E+00   0.00000000000000E+00   1.17472018158418E-03   5.15825270367146E-04   1.69054545195133E-03
      3.53268637921958E-18
      9.00000000000000E-01
      0.00000000000000E+00   0.00000000000000E+00   0.00000000000000E+00   0.00000000000000E+00  -1.27126500108542E-03
     -5.58208834554422E-04  -1.82947383563984E-03  -4.34104135897393E-18   1.80000000000000E+00   1.80000000000000E+00
      0.00000000000000E+00   0.00000000000000E+00   1.27125784408601E-03   5.58215991553827E-04   1.82947383563984E-03
      4.34104135897392E-18
      9.25000000000000E-01
      0.00000000000000E+00   0.00000000000000E+00   0.00000000000000E+00   0.00000000000000E+00  -1.36875340117407E-03
     -6.01016801821835E-04  -1.96977020299591E-03  -5.11052295609738E-18   1.85000000000000E+00   1.85000000000000E+00
      0.00000000000000E+00   0.00000000000000E+00   1.36874600613973E-03   6.01024196856177E-04   1.96977020299591E-03
      5.11052295609737E-18
      9.50000000000001E-01
      0.00000000000000E+00   0.00000000000000E+00   0.00000000000000E+00   0.00000000000000E+00  -1.46695493115305E-03
     -6.44138040900052E-04  -2.11109297205310E-03  -5.84494802350491E-18   1.90000000000000E+00   1.90000000000000E+00
      0.00000000000000E+00   0.00000000000000E+00   1.46694730824417E-03   6.44145663808929E-04   2.11109297205310E-03
      5.84494802350491E-18
      9.75000000000001E-01
      0.00000000000000E+00   0.00000000000000E+00   0.00000000000000E+00   0.00000000000000E+00  -1.56566577275424E-03
     -6.87483055883976E-04  -2.25314882863822E-03  -6.54763627184741E-18   1.95000000000000E+00   1.95000000000000E+00
      0.00000000000000E+00   0.00000000000000E+00   1.56565793172247E-03   6.87490896915749E-04   2.25314882863822E-03
      6.54763627184741E-18
      1.00000000000000E+00
      0.00000000000000E+00   0.00000000000000E+00   0.00000000000000E+00   0.00000000000000E+00  -1.66471298561180E-03
     -7.30975908637624E-04  -2.39568889424943E-03  -7.22149585127846E-18   2.00000000000000E+00   2.00000000000000E+00
      0.00000000000000E+00   0.00000000000000E+00   1.66470493577658E-03   7.30983958472844E-04   2.39568889424943E-03
      7.22149585127843E-18
}
