DF-ISE text

Info {
  version   = 1.0
  type      = xyplot
  datasets  = [
    "time"
    "Cathode OuterVoltage" "Cathode InnerVoltage" "Cathode QuasiFermiPotential" "Cathode DisplacementCurrent" "Cathode eCurrent"
    "Cathode hCurrent" "Cathode TotalCurrent" "Cathode Charge" "Anode OuterVoltage" "Anode InnerVoltage"
    "Anode QuasiFermiPotential" "Anode DisplacementCurrent" "Anode eCurrent" "Anode hCurrent" "Anode TotalCurrent"
    "Anode Charge" ]
  functions = [
    Time
    OuterVoltage InnerVoltage QuasiFermiPotential DisplacementCurrent eCurrent
    hCurrent TotalCurrent Charge OuterVoltage InnerVoltage
    QuasiFermiPotential DisplacementCurrent eCurrent hCurrent TotalCurrent
    Charge ]
}

Data {
      0.00000000000000E+00
      0.00000000000000E+00   0.00000000000000E+00   0.00000000000000E+00   0.00000000000000E+00  -6.74115722458708E-26
      2.93597182315862E-25   2.26185610069991E-25   5.28941943767407E-16   0.00000000000000E+00   0.00000000000000E+00
      0.00000000000000E+00   0.00000000000000E+00   6.74115645827379E-26  -2.93597174652734E-25  -2.26185610069996E-25
     -5.28941943767407E-16
      0.00000000000000E+00
      0.00000000000000E+00   0.00000000000000E+00   0.00000000000000E+00   0.00000000000000E+00  -8.30875544197565E-26
      8.00477366113444E-25   7.17389811693687E-25   5.28941933930105E-16   0.00000000000000E+00   0.00000000000000E+00
      0.00000000000000E+00   0.00000000000000E+00   8.30875493000826E-26  -8.00477360993773E-25  -7.17389811693691E-25
     -5.28941933930104E-16
      0.00000000000000E+00
      0.00000000000000E+00   0.00000000000000E+00   0.00000000000000E+00   0.00000000000000E+00   3.41843541479924E-27
     -2.58218440545739E-26  -2.24034086397747E-26   5.28941933930104E-16   0.00000000000000E+00   0.00000000000000E+00
      0.00000000000000E+00   0.00000000000000E+00  -3.41844222850130E-27   2.58218508682761E-26   2.24034086397748E-26
     -5.28941933930103E-16
      1.00000000000000E-04
      0.00000000000000E+00   0.00000000000000E+00   0.00000000000000E+00   0.00000000000000E+00   8.34825604674217E-20
      1.45024915146360E-20   9.79850519820577E-20   5.29682174277946E-16  -2.00000000000000E-03  -2.00000000000000E-03
      0.00000000000000E+00   0.00000000000000E+00  -3.30288745981541E-20  -6.49561773839042E-20  -9.79850519820583E-20
     -5.29682174277944E-16
      2.19333333333333E-04
      0.00000000000000E+00   0.00000000000000E+00   0.00000000000000E+00   0.00000000000000E+00   1.76644149879450E-19
      4.24972452063151E-20   2.19141395085765E-19   5.30564252592354E-16  -4.38666666666667E-03  -4.38666666666667E-03
      0.00000000000000E+00   0.00000000000000E+00  -6.80784323806739E-20  -1.51062962705091E-19  -2.19141395085765E-19
     -5.30564252592353E-16
      3.62533333333333E-04
      0.00000000000000E+00   0.00000000000000E+00   0.00000000000000E+00   0.00000000000000E+00   2.83769862751682E-19
      4.76292393241447E-20   3.31399102075827E-19   5.31620923693014E-16  -7.25066666666667E-03  -7.25066666666667E-03
      0.00000000000000E+00   0.00000000000000E+00  -1.08320816214166E-19  -2.23078285861662E-19  -3.31399102075827E-19
     -5.31620923693013E-16
      5.33896000000000E-04
      0.00000000000000E+00   0.00000000000000E+00   0.00000000000000E+00   0.00000000000000E+00   4.01338017814187E-19
      6.58795461145224E-20   4.67217563928709E-19   5.32882807987029E-16  -1.06779200000000E-02  -1.06779200000000E-02
      0.00000000000000E+00   0.00000000000000E+00  -1.49680089775298E-19  -3.17537474153410E-19  -4.67217563928708E-19
     -5.32882807987029E-16
      7.38959991111111E-04
      0.00000000000000E+00   0.00000000000000E+00   0.00000000000000E+00   0.00000000000000E+00   5.30114298761613E-19
      8.47496893174324E-20   6.14863988079045E-19   5.34389166580701E-16  -1.47791998222222E-02  -1.47791998222222E-02
      0.00000000000000E+00   0.00000000000000E+00  -1.92323242145980E-19  -4.22540745933065E-19  -6.14863988079045E-19
     -5.34389166580700E-16
      9.84353233807407E-04
      0.00000000000000E+00   0.00000000000000E+00   0.00000000000000E+00   0.00000000000000E+00   6.69273066536523E-19
      1.03704940307134E-19   7.72978006843657E-19   5.36186525288343E-16  -1.96870646761481E-02  -1.96870646761481E-02
      0.00000000000000E+00   0.00000000000000E+00  -2.34995315903093E-19  -5.37982690940563E-19  -7.72978006843656E-19
     -5.36186525288343E-16
      1.27800714756731E-03
      0.00000000000000E+00   0.00000000000000E+00   0.00000000000000E+00   0.00000000000000E+00   8.17530045909170E-19
      1.22096097570267E-19   9.39626143479437E-19   5.38329918002492E-16  -2.55601429513462E-02  -2.55601429513462E-02
      0.00000000000000E+00   0.00000000000000E+00  -2.76180298522730E-19  -6.63445844956706E-19  -9.39626143479436E-19
     -5.38329918002493E-16
      1.62941299769999E-03
      0.00000000000000E+00   0.00000000000000E+00   0.00000000000000E+00   0.00000000000000E+00   9.73282035215337E-19
      1.39210342265859E-19   1.11249237748120E-18   5.40884302507261E-16  -3.25882599539998E-02  -3.25882599539998E-02
      0.00000000000000E+00   0.00000000000000E+00  -3.14219747248141E-19  -7.98272630233050E-19  -1.11249237748119E-18
     -5.40884302507261E-16
      2.04992866502543E-03
      0.00000000000000E+00   0.00000000000000E+00   0.00000000000000E+00   0.00000000000000E+00   1.13491020545326E-18
      1.54353312060637E-19   1.28926351751389E-18   5.43926156663690E-16  -4.09985733005087E-02  -4.09985733005087E-02
      0.00000000000000E+00   0.00000000000000E+00  -3.47505254588194E-19  -9.41758262925699E-19  -1.28926351751389E-18
     -5.43926156663691E-16
      2.55314574692488E-03
      0.00000000000000E+00   0.00000000000000E+00   0.00000000000000E+00   0.00000000000000E+00   1.30127494585774E-18
      1.66954734984784E-19   1.46822968084252E-18   5.47545256432132E-16  -5.10629149384976E-02  -5.10629149384976E-02
      0.00000000000000E+00   0.00000000000000E+00  -3.74726267121484E-19  -1.09350341372103E-18  -1.46822968084252E-18
     -5.47545256432132E-16
      3.15532885493122E-03
      0.00000000000000E+00   0.00000000000000E+00   0.00000000000000E+00   0.00000000000000E+00   1.47238738386104E-18
      1.76677296420271E-19   1.64906468028131E-18   5.51846627806734E-16  -6.31065770986243E-02  -6.31065770986243E-02
      0.00000000000000E+00   0.00000000000000E+00  -3.95126258742062E-19  -1.25393842153925E-18  -1.64906468028131E-18
     -5.51846627806734E-16
      3.87594130751213E-03
      0.00000000000000E+00   0.00000000000000E+00   0.00000000000000E+00   0.00000000000000E+00   1.65016283820606E-18
      1.83494844603417E-19   1.83365768280947E-18   5.56952652053674E-16  -7.75188261502426E-02  -7.75188261502426E-02
      0.00000000000000E+00   0.00000000000000E+00  -4.08701250965153E-19  -1.42495643184432E-18  -1.83365768280947E-18
     -5.56952652053672E-16
      4.73827420910063E-03
      0.00000000000000E+00   0.00000000000000E+00   0.00000000000000E+00   0.00000000000000E+00   1.83903722111495E-18
      1.87710945937935E-19   2.02674816705289E-18   5.63005287649440E-16  -9.47654841820126E-02  -9.47654841820126E-02
      0.00000000000000E+00   0.00000000000000E+00  -4.16290864601116E-19  -1.61045730245177E-18  -2.02674816705289E-18
     -5.63005287649440E-16
      5.00000000000000E-03
      0.00000000000000E+00   0.00000000000000E+00   0.00000000000000E+00   0.00000000000000E+00   1.89302199014392E-18
      1.88476559840071E-19   2.08149854998399E-18   5.64830179599525E-16  -1.00000000000000E-01  -1.00000000000000E-01
      0.00000000000000E+00   0.00000000000000E+00  -4.17515650072861E-19  -1.66398289991113E-18  -2.08149854998399E-18
     -5.64830179599525E-16
      6.03192503890090E-03
      0.00000000000000E+00   0.00000000000000E+00   0.00000000000000E+00   0.00000000000000E+00   2.09653497627205E-18
      1.90202845638222E-19   2.28673782191027E-18   5.71971615089194E-16  -1.20638500778018E-01  -1.20638500778018E-01
      0.00000000000000E+00   0.00000000000000E+00  -4.19904643023034E-19  -1.86683317888722E-18  -2.28673782191025E-18
     -5.71971615089195E-16
      7.26679533545231E-03
      0.00000000000000E+00   0.00000000000000E+00   0.00000000000000E+00   0.00000000000000E+00   2.32780990482506E-18
      1.90935594401649E-19   2.51874549922671E-18   5.80408167286934E-16  -1.45335906709046E-01  -1.45335906709046E-01
      0.00000000000000E+00   0.00000000000000E+00  -4.20730758336601E-19  -2.09801474089012E-18  -2.51874549922672E-18
     -5.80408167286935E-16
      8.74452345699217E-03
      0.00000000000000E+00   0.00000000000000E+00   0.00000000000000E+00   0.00000000000000E+00   2.59270596868152E-18
      1.91277572315848E-19   2.78398354099737E-18   5.90353771019470E-16  -1.74890469139843E-01  -1.74890469139843E-01
      0.00000000000000E+00   0.00000000000000E+00  -4.21279452264324E-19  -2.36270408873304E-18  -2.78398354099736E-18
     -5.90353771019470E-16
      1.00000000000000E-02
      0.00000000000000E+00   0.00000000000000E+00   0.00000000000000E+00   0.00000000000000E+00   2.80849097288628E-18
      1.91490777700430E-19   2.99998175058671E-18   5.98680509153887E-16  -2.00000000000000E-01  -2.00000000000000E-01
      0.00000000000000E+00   0.00000000000000E+00  -4.21727790701444E-19  -2.57825395988527E-18  -2.99998175058671E-18
     -5.98680509153888E-16
      1.17683479854427E-02
      0.00000000000000E+00   0.00000000000000E+00   0.00000000000000E+00   0.00000000000000E+00   3.10065891628932E-18
      1.91782246620728E-19   3.29244116291005E-18   6.10226045911703E-16  -2.35366959708854E-01  -2.35366959708854E-01
      0.00000000000000E+00   0.00000000000000E+00  -4.22351464512603E-19  -2.87008969839745E-18  -3.29244116291005E-18
     -6.10226045911705E-16
      1.38844710746891E-02
      0.00000000000000E+00   0.00000000000000E+00   0.00000000000000E+00   0.00000000000000E+00   3.44216878409530E-18
      1.92125154840290E-19   3.63429393893559E-18   6.23775800243293E-16  -2.77689421493782E-01  -2.77689421493782E-01
      0.00000000000000E+00   0.00000000000000E+00  -4.23084615834916E-19  -3.21120932310066E-18  -3.63429393893557E-18
     -6.23775800243294E-16
      1.50000000000000E-02
      0.00000000000000E+00   0.00000000000000E+00   0.00000000000000E+00   0.00000000000000E+00   3.62212229915597E-18
      1.92302736441283E-19   3.81442503559725E-18   6.30807541664489E-16  -3.00000000000000E-01  -3.00000000000000E-01
      0.00000000000000E+00   0.00000000000000E+00  -4.23466506318164E-19  -3.39095852927909E-18  -3.81442503559725E-18
     -6.30807541664489E-16
      1.75322939634649E-02
      0.00000000000000E+00   0.00000000000000E+00   0.00000000000000E+00   0.00000000000000E+00   4.02950176329133E-18
      1.92701559514615E-19   4.22220332280595E-18   6.46500656878702E-16  -3.50645879269298E-01  -3.50645879269298E-01
      0.00000000000000E+00   0.00000000000000E+00  -4.24319128422440E-19  -3.79788419438352E-18  -4.22220332280596E-18
     -6.46500656878701E-16
      2.00000000000000E-02
      0.00000000000000E+00   0.00000000000000E+00   0.00000000000000E+00   0.00000000000000E+00   4.41363056726444E-18
      1.93082247502812E-19   4.60671281476725E-18   6.61453909515355E-16  -4.00000000000000E-01  -4.00000000000000E-01
      0.00000000000000E+00   0.00000000000000E+00  -4.25134065951359E-19  -4.18157874881588E-18  -4.60671281476724E-18
     -6.61453909515354E-16
      2.30303117762796E-02
      0.00000000000000E+00   0.00000000000000E+00   0.00000000000000E+00   0.00000000000000E+00   4.86325347925461E-18
      1.93540603966042E-19   5.05679408322065E-18   6.79389888197099E-16  -4.60606235525593E-01  -4.60606235525593E-01
      0.00000000000000E+00   0.00000000000000E+00  -4.26114265664701E-19  -4.63067981755597E-18  -5.05679408322068E-18
     -6.79389888197099E-16
      2.50000000000000E-02
      0.00000000000000E+00   0.00000000000000E+00   0.00000000000000E+00   0.00000000000000E+00   5.15220029129765E-18
      1.93833326289629E-19   5.34603361758728E-18   6.90812055867807E-16  -5.00000000000000E-01  -5.00000000000000E-01
      0.00000000000000E+00   0.00000000000000E+00  -4.26739634673744E-19  -4.91929398291354E-18  -5.34603361758729E-18
     -6.90812055867808E-16
      2.86161720530270E-02
      0.00000000000000E+00   0.00000000000000E+00   0.00000000000000E+00   0.00000000000000E+00   5.68305976751897E-18
      1.94360806497301E-19   5.87742057401627E-18   7.11331693649061E-16  -5.72323441060541E-01  -5.72323441060541E-01
      0.00000000000000E+00   0.00000000000000E+00  -4.27867829369840E-19  -5.44955274464644E-18  -5.87742057401628E-18
     -7.11331693649060E-16
      3.00000000000000E-02
      0.00000000000000E+00   0.00000000000000E+00   0.00000000000000E+00   0.00000000000000E+00   5.88128390420381E-18
      1.94559478761527E-19   6.07584338296533E-18   7.19038360097074E-16  -6.00000000000000E-01  -6.00000000000000E-01
      0.00000000000000E+00   0.00000000000000E+00  -4.28292008245444E-19  -5.64755137471986E-18  -6.07584338296531E-18
     -7.19038360097075E-16
      3.43152986499456E-02
      0.00000000000000E+00   0.00000000000000E+00   0.00000000000000E+00   0.00000000000000E+00   6.47229628644829E-18
      1.95168649757333E-19   6.66746493620562E-18   7.42589508124111E-16  -6.86305972998912E-01  -6.86305972998912E-01
      0.00000000000000E+00   0.00000000000000E+00  -4.29594889882321E-19  -6.23787004632329E-18  -6.66746493620561E-18
     -7.42589508124114E-16
      3.50000000000000E-02
      0.00000000000000E+00   0.00000000000000E+00   0.00000000000000E+00   0.00000000000000E+00   6.56440879831910E-18
      1.95263953145999E-19   6.75967275146510E-18   7.46262586345554E-16  -7.00000000000000E-01  -7.00000000000000E-01
      0.00000000000000E+00   0.00000000000000E+00  -4.29774004075065E-19  -6.32989874739006E-18  -6.75967275146512E-18
     -7.46262586345556E-16
      4.00000000000000E-02
      0.00000000000000E+00   0.00000000000000E+00   0.00000000000000E+00   0.00000000000000E+00   7.23812894090128E-18
      1.95949806625258E-19   7.43407874752654E-18   7.72594290493561E-16  -8.00000000000000E-01  -8.00000000000000E-01
      0.00000000000000E+00   0.00000000000000E+00  -4.29132096275231E-19  -7.00494665125132E-18  -7.43407874752655E-18
     -7.72594290493560E-16
      4.50000000000000E-02
      0.00000000000000E+00   0.00000000000000E+00   0.00000000000000E+00   0.00000000000000E+00   7.88543970003144E-18
      1.96618697658480E-19   8.08205839768992E-18   7.98127120045739E-16  -9.00000000000000E-01  -9.00000000000000E-01
      0.00000000000000E+00   0.00000000000000E+00  -4.32702292910931E-19  -7.64935610477900E-18  -8.08205839768993E-18
     -7.98127120045741E-16
      5.00000000000000E-02
      0.00000000000000E+00   0.00000000000000E+00   0.00000000000000E+00   0.00000000000000E+00   8.51006303508612E-18
      1.97004159130120E-19   8.70706719421624E-18   8.22941586152182E-16  -1.00000000000000E+00  -1.00000000000000E+00
      0.00000000000000E+00   0.00000000000000E+00  -4.33628943792044E-19  -8.27343825042425E-18  -8.70706719421629E-18
     -8.22941586152182E-16
      5.50000000000000E-02
      0.00000000000000E+00   0.00000000000000E+00   0.00000000000000E+00   0.00000000000000E+00   9.12650208287933E-18
      1.97926290287259E-19   9.32442837316659E-18   8.47106729887351E-16  -1.10000000000000E+00  -1.10000000000000E+00
      0.00000000000000E+00   0.00000000000000E+00  -4.35507726276677E-19  -8.88892064688991E-18  -9.32442837316658E-18
     -8.47106729887353E-16
      6.00000000000000E-02
      0.00000000000000E+00   0.00000000000000E+00   0.00000000000000E+00   0.00000000000000E+00   9.71236780940573E-18
      1.98530396397449E-19   9.91089820580318E-18   8.70681058937664E-16  -1.20000000000000E+00  -1.20000000000000E+00
      0.00000000000000E+00   0.00000000000000E+00  -4.36889485721281E-19  -9.47400872008197E-18  -9.91089820580325E-18
     -8.70681058937665E-16
      6.50000000000000E-02
      0.00000000000000E+00   0.00000000000000E+00   0.00000000000000E+00   0.00000000000000E+00   1.02900194850088E-17
      1.99199597940839E-19   1.04892190829497E-17   8.93713128770273E-16  -1.30000000000000E+00  -1.30000000000000E+00
      0.00000000000000E+00   0.00000000000000E+00  -4.38213477051009E-19  -1.00510056058987E-17  -1.04892190829497E-17
     -8.93713128770277E-16
      7.00000000000000E-02
      0.00000000000000E+00   0.00000000000000E+00   0.00000000000000E+00   0.00000000000000E+00   1.08554802806371E-17
      1.99840723085260E-19   1.10553210037223E-17   9.16242127777230E-16  -1.40000000000000E+00  -1.40000000000000E+00
      0.00000000000000E+00   0.00000000000000E+00  -4.39638592188425E-19  -1.06156824115340E-17  -1.10553210037224E-17
     -9.16242127777232E-16
      7.50000000000000E-02
      0.00000000000000E+00   0.00000000000000E+00   0.00000000000000E+00   0.00000000000000E+00   1.13985734147194E-17
      2.00469575566485E-19   1.15990429902859E-17   9.38298758659118E-16  -1.50000000000000E+00  -1.50000000000000E+00
      0.00000000000000E+00   0.00000000000000E+00  -4.41010462268997E-19  -1.11580325280168E-17  -1.15990429902858E-17
     -9.38298758659117E-16
      8.00000000000000E-02
      0.00000000000000E+00   0.00000000000000E+00   0.00000000000000E+00   0.00000000000000E+00   1.19343502350945E-17
      2.01110208551737E-19   1.21354604436462E-17   9.59906569412745E-16  -1.60000000000000E+00  -1.60000000000000E+00
      0.00000000000000E+00   0.00000000000000E+00  -4.42368565270514E-19  -1.16930918783757E-17  -1.21354604436462E-17
     -9.59906569412745E-16
      8.50000000000000E-02
      0.00000000000000E+00   0.00000000000000E+00   0.00000000000000E+00   0.00000000000000E+00   1.24619617556171E-17
      2.01747640821993E-19   1.26637093964391E-17   9.81083679547859E-16  -1.70000000000000E+00  -1.70000000000000E+00
      0.00000000000000E+00   0.00000000000000E+00  -4.43758781289228E-19  -1.22199506151499E-17  -1.26637093964391E-17
     -9.81083679547855E-16
      9.00000000000000E-02
      0.00000000000000E+00   0.00000000000000E+00   0.00000000000000E+00   0.00000000000000E+00   1.29702874932962E-17
      2.02380260782523E-19   1.31726677540787E-17   1.00184460612366E-15  -1.80000000000000E+00  -1.80000000000000E+00
      0.00000000000000E+00   0.00000000000000E+00  -4.45136176872038E-19  -1.27275315772066E-17  -1.31726677540787E-17
     -1.00184460612366E-15
      9.50000000000000E-02
      0.00000000000000E+00   0.00000000000000E+00   0.00000000000000E+00   0.00000000000000E+00   1.34715481156698E-17
      2.03025385936650E-19   1.36745735016064E-17   1.02220170952395E-15  -1.90000000000000E+00  -1.90000000000000E+00
      0.00000000000000E+00   0.00000000000000E+00  -4.46515258627888E-19  -1.32280582429786E-17  -1.36745735016065E-17
     -1.02220170952395E-15
      1.00000000000000E-01
      0.00000000000000E+00   0.00000000000000E+00   0.00000000000000E+00   0.00000000000000E+00   1.39724643025944E-17
      2.03666092878603E-19   1.41761303954730E-17   1.04216578788887E-15  -2.00000000000000E+00  -2.00000000000000E+00
      0.00000000000000E+00   0.00000000000000E+00  -4.47893941320959E-19  -1.37282364541521E-17  -1.41761303954730E-17
     -1.04216578788888E-15
      1.05000000000000E-01
      0.00000000000000E+00   0.00000000000000E+00   0.00000000000000E+00   0.00000000000000E+00   1.44575895700071E-17
      2.04302749747883E-19   1.46618923197550E-17   1.06174565206012E-15  -2.10000000000000E+00  -2.10000000000000E+00
      0.00000000000000E+00   0.00000000000000E+00  -4.49268245643123E-19  -1.42126240741119E-17  -1.46618923197551E-17
     -1.06174565206012E-15
      1.10000000000000E-01
      0.00000000000000E+00   0.00000000000000E+00   0.00000000000000E+00   0.00000000000000E+00   1.49301519842707E-17
      2.04944770519783E-19   1.51350967547904E-17   1.08094704525712E-15  -2.20000000000000E+00  -2.20000000000000E+00
      0.00000000000000E+00   0.00000000000000E+00  -4.50632993532351E-19  -1.46844637612581E-17  -1.51350967547904E-17
     -1.08094704525712E-15
      1.15000000000000E-01
      0.00000000000000E+00   0.00000000000000E+00   0.00000000000000E+00   0.00000000000000E+00   1.54109960766645E-17
      2.05578893785008E-19   1.56165749704495E-17   1.09977178365085E-15  -2.30000000000000E+00  -2.30000000000000E+00
      0.00000000000000E+00   0.00000000000000E+00  -4.51981241320530E-19  -1.51645937291289E-17  -1.56165749704494E-17
     -1.09977178365084E-15
      1.20000000000000E-01
      0.00000000000000E+00   0.00000000000000E+00   0.00000000000000E+00   0.00000000000000E+00   1.58853937082211E-17
      2.06204860664415E-19   1.60915985688856E-17   1.11821820368765E-15  -2.40000000000000E+00  -2.40000000000000E+00
      0.00000000000000E+00   0.00000000000000E+00  -4.53305520585614E-19  -1.56382930483000E-17  -1.60915985688856E-17
     -1.11821820368765E-15
      1.25000000000000E-01
      0.00000000000000E+00   0.00000000000000E+00   0.00000000000000E+00   0.00000000000000E+00   1.63405436177146E-17
      2.06820446821970E-19   1.65473640645365E-17   1.13628374064766E-15  -2.50000000000000E+00  -2.50000000000000E+00
      0.00000000000000E+00   0.00000000000000E+00  -4.54599219387074E-19  -1.60927648451495E-17  -1.65473640645366E-17
     -1.13628374064766E-15
      1.30000000000000E-01
      0.00000000000000E+00   0.00000000000000E+00   0.00000000000000E+00   0.00000000000000E+00   1.68046301699619E-17
      2.07422106536997E-19   1.70120522764989E-17   1.15396965146906E-15  -2.60000000000000E+00  -2.60000000000000E+00
      0.00000000000000E+00   0.00000000000000E+00  -4.55857923537773E-19  -1.65561943529612E-17  -1.70120522764990E-17
     -1.15396965146906E-15
      1.35000000000000E-01
      0.00000000000000E+00   0.00000000000000E+00   0.00000000000000E+00   0.00000000000000E+00   1.72754419687901E-17
      2.08006362882321E-19   1.74834483316725E-17   1.17128657926029E-15  -2.70000000000000E+00  -2.70000000000000E+00
      0.00000000000000E+00   0.00000000000000E+00  -4.57080200877855E-19  -1.70263681307947E-17  -1.74834483316725E-17
     -1.17128657926029E-15
      1.40000000000000E-01
      0.00000000000000E+00   0.00000000000000E+00   0.00000000000000E+00   0.00000000000000E+00   1.77325980619854E-17
      2.08569231849089E-19   1.79411672938345E-17   1.18825839500752E-15  -2.80000000000000E+00  -2.80000000000000E+00
      0.00000000000000E+00   0.00000000000000E+00  -4.58267017608385E-19  -1.74829002762262E-17  -1.79411672938345E-17
     -1.18825839500752E-15
      1.45000000000000E-01
      0.00000000000000E+00   0.00000000000000E+00   0.00000000000000E+00   0.00000000000000E+00   1.81804002757261E-17
      2.09118447852429E-19   1.83895187235785E-17   1.20492179683016E-15  -2.90000000000000E+00  -2.90000000000000E+00
      0.00000000000000E+00   0.00000000000000E+00  -4.59421053353014E-19  -1.79300976702254E-17  -1.83895187235784E-17
     -1.20492179683016E-15
      1.50000000000000E-01
      0.00000000000000E+00   0.00000000000000E+00   0.00000000000000E+00   0.00000000000000E+00   1.86417803043608E-17
      2.09647351894331E-19   1.88514276562551E-17   1.22132125641915E-15  -3.00000000000000E+00  -3.00000000000000E+00
      0.00000000000000E+00   0.00000000000000E+00  -4.60546055055001E-19  -1.83908816012001E-17  -1.88514276562551E-17
     -1.22132125641915E-15
      1.55000000000000E-01
      0.00000000000000E+00   0.00000000000000E+00   0.00000000000000E+00   0.00000000000000E+00   1.91033277106096E-17
      2.10161093244501E-19   1.93134888038541E-17   1.23750167444036E-15  -3.10000000000000E+00  -3.10000000000000E+00
      0.00000000000000E+00   0.00000000000000E+00  -4.61646685194518E-19  -1.88518421186596E-17  -1.93134888038541E-17
     -1.23750167444036E-15
      1.60000000000000E-01
      0.00000000000000E+00   0.00000000000000E+00   0.00000000000000E+00   0.00000000000000E+00   1.95423464536904E-17
      2.10662833564392E-19   1.97530092872548E-17   1.25350203639091E-15  -3.20000000000000E+00  -3.20000000000000E+00
      0.00000000000000E+00   0.00000000000000E+00  -4.62727880446219E-19  -1.92902814068087E-17  -1.97530092872549E-17
     -1.25350203639091E-15
      1.65000000000000E-01
      0.00000000000000E+00   0.00000000000000E+00   0.00000000000000E+00   0.00000000000000E+00   1.99810478099815E-17
      2.11156446530561E-19   2.01922042565121E-17   1.26935194141887E-15  -3.30000000000000E+00  -3.30000000000000E+00
      0.00000000000000E+00   0.00000000000000E+00  -4.63793829038937E-19  -1.97284104274732E-17  -2.01922042565121E-17
     -1.26935194141887E-15
      1.70000000000000E-01
      0.00000000000000E+00   0.00000000000000E+00   0.00000000000000E+00   0.00000000000000E+00   2.04307745285404E-17
      2.11642682877944E-19   2.06424172114184E-17   1.28507090252735E-15  -3.40000000000000E+00  -3.40000000000000E+00
      0.00000000000000E+00   0.00000000000000E+00  -4.64847333158693E-19  -2.01775698782597E-17  -2.06424172114184E-17
     -1.28507090252734E-15
      1.75000000000000E-01
      0.00000000000000E+00   0.00000000000000E+00   0.00000000000000E+00   0.00000000000000E+00   2.08798998493435E-17
      2.12015087393672E-19   2.10919149367372E-17   1.30066932454732E-15  -3.50000000000000E+00  -3.50000000000000E+00
      0.00000000000000E+00   0.00000000000000E+00  -4.65881372223816E-19  -2.06260335645134E-17  -2.10919149367372E-17
     -1.30066932454732E-15
      1.80000000000000E-01
      0.00000000000000E+00   0.00000000000000E+00   0.00000000000000E+00   0.00000000000000E+00   2.13102350137865E-17
      2.12466404633846E-19   2.15227014184203E-17   1.31615010544594E-15  -3.60000000000000E+00  -3.60000000000000E+00
      0.00000000000000E+00   0.00000000000000E+00  -4.66921195075231E-19  -2.10557802233452E-17  -2.15227014184205E-17
     -1.31615010544594E-15
      1.85000000000000E-01
      0.00000000000000E+00   0.00000000000000E+00   0.00000000000000E+00   0.00000000000000E+00   2.17548252206844E-17
      2.13079410327912E-19   2.19679046310123E-17   1.33151025103873E-15  -3.70000000000000E+00  -3.70000000000000E+00
      0.00000000000000E+00   0.00000000000000E+00  -4.67947558534742E-19  -2.14999570724777E-17  -2.19679046310124E-17
     -1.33151025103873E-15
      1.90000000000000E-01
      0.00000000000000E+00   0.00000000000000E+00   0.00000000000000E+00   0.00000000000000E+00   2.22320386443607E-17
      2.13555959926520E-19   2.24455946042872E-17   1.34674230080995E-15  -3.80000000000000E+00  -3.80000000000000E+00
      0.00000000000000E+00   0.00000000000000E+00  -4.68965583088352E-19  -2.19766290211988E-17  -2.24455946042871E-17
     -1.34674230080995E-15
      1.95000000000000E-01
      0.00000000000000E+00   0.00000000000000E+00   0.00000000000000E+00   0.00000000000000E+00   2.27438526923550E-17
      2.13946959028906E-19   2.29577996513839E-17   1.36183561133332E-15  -3.90000000000000E+00  -3.90000000000000E+00
      0.00000000000000E+00   0.00000000000000E+00  -4.69971899300570E-19  -2.24878277520832E-17  -2.29577996513838E-17
     -1.36183561133332E-15
      2.00000000000000E-01
      0.00000000000000E+00   0.00000000000000E+00   0.00000000000000E+00   0.00000000000000E+00   2.32749722835445E-17
      2.14354177710533E-19   2.34893264612550E-17   1.37677765917366E-15  -4.00000000000000E+00  -4.00000000000000E+00
      0.00000000000000E+00   0.00000000000000E+00  -4.70986805809940E-19  -2.30183396554451E-17  -2.34893264612551E-17
     -1.37677765917365E-15
      2.05000000000000E-01
      0.00000000000000E+00   0.00000000000000E+00   0.00000000000000E+00   0.00000000000000E+00   2.38405119266163E-17
      2.14982896568842E-19   2.40554948231851E-17   1.39155554416100E-15  -4.10000000000000E+00  -4.10000000000000E+00
      0.00000000000000E+00   0.00000000000000E+00  -4.71992897143750E-19  -2.35835019260414E-17  -2.40554948231851E-17
     -1.39155554416099E-15
      2.10000000000000E-01
      0.00000000000000E+00   0.00000000000000E+00   0.00000000000000E+00   0.00000000000000E+00   2.44191900318769E-17
      2.15454995676488E-19   2.46346450275534E-17   1.40615779932085E-15  -4.20000000000000E+00  -4.20000000000000E+00
      0.00000000000000E+00   0.00000000000000E+00  -4.72990232351675E-19  -2.41616547952017E-17  -2.46346450275533E-17
     -1.40615779932085E-15
      2.15000000000000E-01
      0.00000000000000E+00   0.00000000000000E+00   0.00000000000000E+00   0.00000000000000E+00   2.49522338804393E-17
      2.15922702301670E-19   2.51681565827410E-17   1.42057642969954E-15  -4.30000000000000E+00  -4.30000000000000E+00
      0.00000000000000E+00   0.00000000000000E+00  -4.73978815067414E-19  -2.46941777676736E-17  -2.51681565827410E-17
     -1.42057642969954E-15
      2.20000000000000E-01
      0.00000000000000E+00   0.00000000000000E+00   0.00000000000000E+00   0.00000000000000E+00   2.53715305036744E-17
      2.16385507639147E-19   2.55879160113135E-17   1.43480882971679E-15  -4.40000000000000E+00  -4.40000000000000E+00
      0.00000000000000E+00   0.00000000000000E+00  -4.74958654927247E-19  -2.51129573563863E-17  -2.55879160113135E-17
     -1.43480882971680E-15
      2.25000000000000E-01
      0.00000000000000E+00   0.00000000000000E+00   0.00000000000000E+00   0.00000000000000E+00   2.56890696244664E-17
      2.16843964872617E-19   2.59059135893390E-17   1.44885899415493E-15  -4.50000000000000E+00  -4.50000000000000E+00
      0.00000000000000E+00   0.00000000000000E+00  -4.75930975392382E-19  -2.54299826139467E-17  -2.59059135893390E-17
     -1.44885899415493E-15
      2.30000000000000E-01
      0.00000000000000E+00   0.00000000000000E+00   0.00000000000000E+00   0.00000000000000E+00   2.59838828468537E-17
      2.17297214957224E-19   2.62011800618110E-17   1.46273746102205E-15  -4.60000000000000E+00  -4.60000000000000E+00
      0.00000000000000E+00   0.00000000000000E+00  -4.76897174473322E-19  -2.57242828873376E-17  -2.62011800618109E-17
     -1.46273746102204E-15
      2.35000000000000E-01