# vtk DataFile Version 3.0
Vela TCAD output
ASCII
DATASET UNSTRUCTURED_GRID
POINTS 20 double
0 0 0.0
2.5e-07 0 0.0
5e-07 0 0.0
7.5e-07 0 0.0
1e-06 0 0.0
0 1.5e-07 0.0
2.5e-07 1.5e-07 0.0
5e-07 1.5e-07 0.0
7.5e-07 1.5e-07 0.0
1e-06 1.5e-07 0.0
0 3e-07 0.0
2.5e-07 3e-07 0.0
5e-07 3e-07 0.0
7.5e-07 3e-07 0.0
1e-06 3e-07 0.0
0 3.5e-07 0.0
2.5e-07 3.5e-07 0.0
5e-07 3.5e-07 0.0
7.5e-07 3.5e-07 0.0
1e-06 3.5e-07 0.0
CELLS 24 96
3 0 1 6
3 0 6 5
3 1 2 7
3 1 7 6
3 2 3 8
3 2 8 7
3 3 4 9
3 3 9 8
3 5 6 11
3 5 11 10
3 6 7 12
3 6 12 11
3 7 8 13
3 7 13 12
3 8 9 14
3 8 14 13
3 10 11 16
3 10 16 15
3 11 12 17
3 11 17 16
3 12 13 18
3 12 18 17
3 13 14 19
3 13 19 18
CELL_TYPES 24
5
5
5
5
5
5
5
5
5
5
5
5
5
5
5
5
5
5
5
5
5
5
5
5
CELL_DATA 24
SCALARS region_id int 1
LOOKUP_TABLE default
POINT_DATA 20
SCALARS potential_V double 1
LOOKUP_TABLE default
0
0
0
0
0
0
0.55135
0.324664
0.759687
0.1
0
0.947815
0.585104
0.86952
0.1
0.8
0.8
0.8
0.8
0.8
SCALARS net_doping_m3 double 1
LOOKUP_TABLE default
-5e+21
-5e+21
-5e+21
-5e+21
-5e+21
6.5e+22
1.25e+22
-5e+21
3e+22
3e+22
3.33333e+22
3.25e+22
-2.5e+21
1.5e+22
6.66667e+22
0
0
0
0
0
